LAMMPS (29 Oct 2020)
OMP_NUM_THREADS environment is not set. Defaulting to 1 thread. (../comm.cpp:94)
  using 1 OpenMP thread(s) per MPI task
####################################################
#    This program is free software: you can redistribute it and/or modify
#    it under the terms of the GNU General Public License as published by
#    the Free Software Foundation, either version 3 of the License, or
#    (at your option) any later version.
#
#    This program is distributed in the hope that it will be useful,
#    but WITHOUT ANY WARRANTY; without even the implied warranty of
#    MERCHANTABILITY or FITNESS FOR A PARTICULAR PURPOSE.  See the
#    GNU General Public License for more details.


units		real        ## defines the units style used herein. More information: https://docs.lammps.org/units.html
atom_style	full        ## defines the atom style used herein. More information: https://docs.lammps.org/atom_style.html

# Styles
pair_style      lj/cut/coul/long 15.0 10.0      ## sets the formula(s) LAMMPS uses to compute pairwise interactions; here, lennard-jones (LJ) with long-range Coulomb interaction. More: https://docs.lammps.org/pair_lj_cut_coul.html
pair_modify     shift no                        ## the shift keyword determines whether a Lennard-Jones potential is shifted at its cutoff to 0.0. More: https://docs.lammps.org/pair_modify.html
kspace_style    pppm 1.0e-4                     ## defines a long-range solver for LAMMPS to compute long-range Coulombic interactions. Note: requires use of a matching pair style, i.e. PPPM with coul/long. More: https://docs.lammps.org/kspace_style.html
bond_style      harmonic                        ## defined based off the forcefield used to construct the system; models the atoms' interactions
angle_style     harmonic
dihedral_style  opls
improper_style  cvff
special_bonds   lj 0 0 1 coul 0 0 1

read_data       500K_TRP.lmps      ## input lammps datafile, equilibriated until structure nears experimental properties
Reading data file ...
  orthogonal box = (228.36200 228.36200 228.36200) to (371.63800 371.63800 371.63800)
  4 by 4 by 4 MPI processor grid
  reading atoms ...
  212040 atoms
  reading velocities ...
  212040 velocities
  scanning bonds ...
  2 = max bonds/atom
  scanning angles ...
  6 = max angles/atom
  scanning dihedrals ...
  15 = max dihedrals/atom
  scanning impropers ...
  2 = max impropers/atom
  reading bonds ...
  236020 bonds
  reading angles ...
  399920 angles
  reading dihedrals ...
  615800 dihedrals
  reading impropers ...
  127960 impropers
Finding 1-2 1-3 1-4 neighbors ...
  special bond factors lj:    0.0      0.0      1.0     
  special bond factors coul:  0.0      0.0      1.0     
     4 = max # of 1-2 neighbors
    10 = max # of 1-3 neighbors
    14 = max # of special neighbors
  special bonds CPU = 1.703 seconds
  read_data CPU = 3.710 seconds

dielectric      1.0
neighbor    	1.0 bin
neigh_modify	delay 0 every 1 check no        ## this is to make sure that the neighbor list is updated every timestep, and the atoms don't get lost as the system is being deformed ##

timestep	    1.0                             ## unit = fs, per "real" unit style
run_style       verlet                          ## defines algorithm used for simulation computation; verlet integration is a numerical method used to integrate Newton's equations of motion.

variable stress equal press*-1                         ## computes stress as the negative of press values
variable engStrain equal (lx-91.07191)/91.07191      ## computes engineering strain; lx_0 must be found and inputted manually (for now)

thermo		    20                                                               ## output log data (headers in thermo_style), recorded at every timestep in numList.txt
thermo_style    custom step vol temp press lx ly lz v_stress v_engStrain         ## data headers of output log file. More: https://docs.lammps.org/thermo_style.html

################# Deformation ##################

fix 1 all npt temp 500 500 100 y 1 1 100.0 z 1 1 100.0      ## stress normal to the x direction can vary; external pressure (y and z) = 1atm ##

fix 2 all deform 1 x scale 2.0 remap x                      ## sets a uniaxial (x-direction) deformation in motion, scaling a set amount (here, 4.0x) the initial length


################# Dumping ##################

reset_timestep 0

dump dump2 all custom 20000 sim.lammpstrj id mol type q xs ys zs ix iy iz

restart 40000 PMP.restart

run 		400000              ## this depends on the overall strain rate, where strain rate = deformScale / runTimeSteps (consider units!)
PPPM initialization ...
WARNING: System is not charge neutral, net charge = 0.034008 (../kspace.cpp:313)
  using 12-bit tables for long-range coulomb (../kspace.cpp:328)
  G vector (1/distance) = 0.2076702
  grid = 40 40 40
  stencil order = 5
  estimated absolute RMS force accuracy = 0.028649168
  estimated relative force accuracy = 8.6276118e-05
  using double precision FFTW3
  3d grid and FFT values/proc = 3375 1000
Neighbor list info ...
  update every 1 steps, delay 0 steps, check no
  max neighbors/atom: 2000, page size: 100000
  master list distance cutoff = 16
  ghost atom cutoff = 16
  binsize = 8, bins = 18 18 18
  1 neighbor lists, perpetual/occasional/extra = 1 0 0
  (1) pair lj/cut/coul/long, perpetual
      attributes: half, newton on
      pair build: half/bin/newton
      stencil: half/bin/3d/newton
      bin: standard
Per MPI rank memory allocation (min/avg/max) = 37.37 | 39.09 | 39.74 Mbytes
Step Volume Temp Press Lx Ly Lz v_stress v_engStrain 
       0    2941171.5    500.13023    13851.199      143.276      143.276      143.276   -13851.199   0.57321835 
      20    2962309.7    509.48135    1641.1691    143.28316    143.81074    143.76196   -1641.1691   0.57329701 
      40    2982354.6    505.44953    1172.6282    143.29033    144.29599    144.24081   -1172.6282   0.57337567 
      60    2978069.9    507.63707    207.37583    143.29749    144.19766    144.12459   -207.37583   0.57345433 
      80    2972533.2    505.90673   -200.96582    143.30466    144.04749    143.99941    200.96582   0.57353299 
     100    2971695.9    506.01735   -435.05322    143.31182     143.9839    144.01523    435.05322   0.57361165 
     120    2969455.3    504.32737   -1081.6948    143.31898    143.90658    143.97677    1081.6948   0.57369031 
     140      2964027     503.8867   -982.03891    143.32615    143.77495    143.83796    982.03891   0.57376898 
     160    2957658.7    503.48483   -735.70355    143.33331    143.63508    143.66151    735.70355   0.57384764 
     180    2958760.6    505.14344   -1069.9017    143.34047    143.65553    143.68738    1069.9017    0.5739263 
     200    2954465.8    503.93329  -0.59044234    143.34764    143.53032    143.59681   0.59044234   0.57400496 
     220    2955827.8    503.06881   -170.77107     143.3548    143.55838    143.62775    170.77107   0.57408362 
     240    2956009.9    502.58258    573.56071    143.36197     143.5476     143.6402   -573.56071   0.57416228 
     260    2950578.4      501.132    1230.4089    143.36913    143.37695    143.53974   -1230.4089   0.57424094 
     280    2952606.9    500.92079    869.46724    143.37629    143.35925    143.64898   -869.46724    0.5743196 
     300    2953182.6    502.25054   -362.03128    143.38346    143.33157    143.69756    362.03128   0.57439826 
     320    2951770.1    503.52214    588.11506    143.39062    143.27036    143.68302   -588.11506   0.57447692 
     340    2953146.8    500.24079   -837.79749    143.39778    143.29678    143.71635    837.79749   0.57455558 
     360    2951606.6     500.4031   -421.02301    143.40495    143.23661    143.69455    421.02301   0.57463425 
     380    2952140.9    500.45517    88.923599    143.41211    143.24042    143.70956   -88.923599   0.57471291 
     400    2952688.3    499.64207   -180.12261    143.41928    143.21076     143.7588    180.12261   0.57479157 
     420    2953499.5    498.93893   -259.31341    143.42644    143.24639    143.75535    259.31341   0.57487023 
     440    2951998.3    500.68246    398.44055     143.4336     143.1927    143.72897   -398.44055   0.57494889 
     460    2952469.1    499.68518    19.436328    143.44077    143.15791    143.77965   -19.436328   0.57502755 
     480    2951979.7    499.00767    348.78525    143.44793    143.13195    143.77471   -348.78525   0.57510621 
     500    2951673.7    498.56084    569.00514    143.45509    143.13288    143.75169   -569.00514   0.57518487 
     520    2952218.1    499.18907    459.20013    143.46226      143.155    143.74881   -459.20013   0.57526353 
     540    2955581.7    499.48153   -62.575726    143.46942    143.18617    143.87408    62.575726   0.57534219 
     560    2957560.8    498.74807   -335.19611    143.47659    143.23809    143.91105    335.19611   0.57542086 
     580    2955627.2     499.3377   -61.295416    143.48375    143.16757    143.88061    61.295416   0.57549952 
     600    2956332.3    499.09237   -245.74457    143.49091    143.20172    143.87344    245.74457   0.57557818 
     620    2957491.3    498.39011   -357.44321    143.49808    143.20625     143.9181    357.44321   0.57565684 
     640      2955588     500.1973    231.09294    143.50524    143.12757    143.89736   -231.09294    0.5757355 
     660    2955709.2    499.53596    8.5352043    143.51241    143.13828    143.88531   -8.5352043   0.57581416 
     680    2954826.2    499.45999    318.30056    143.51957    143.12235    143.85116   -318.30056   0.57589282 
     700    2956619.1    499.36543   -187.08123    143.52673    143.17683    143.87649    187.08123   0.57597148 
     720    2955718.1    500.56526    41.276259     143.5339    143.14971    143.85271   -41.276259   0.57605014 
     740    2954503.5    500.76375   -36.623501    143.54106    143.11272    143.82359    36.623501    0.5761288 
     760    2955053.2    501.39909    314.37354    143.54822    143.10544    143.85049   -314.37354   0.57620746 
     780    2955802.1    500.40576   -144.61843    143.55539     143.1089    143.87629    144.61843   0.57628613 
     800    2956061.2    500.21235    36.962225    143.56255    143.11148    143.87912   -36.962225   0.57636479 
     820    2956073.9    502.30002   -339.27695    143.56972    143.14136    143.84252    339.27695   0.57644345 
     840    2955723.5     500.0492   -516.58548    143.57688    143.14925    143.81037    516.58548   0.57652211 
     860      2955441    500.75956   -131.63736    143.58404    143.15683    143.78184    131.63736   0.57660077 
     880    2953416.4    499.85636    74.825463    143.59121     143.1093     143.7239   -74.825463   0.57667943 
     900      2953358    501.30427    157.61985    143.59837    143.11763    143.70552   -157.61985   0.57675809 
     920    2955410.3    500.01799   -146.13706    143.60553    143.16668    143.74895    146.13706   0.57683675 
     940    2955503.9    501.02704     -22.6876     143.6127    143.15914    143.75389      22.6876   0.57691541 
     960    2956153.3    499.87931    71.944836    143.61986    143.15585    143.78161   -71.944836   0.57699407 
     980      2956111    501.90652    218.16663    143.62703    143.18173    143.74639   -218.16663   0.57707273 
    1000    2956500.2    500.56508    251.81656    143.63419    143.14296    143.79709   -251.81656    0.5771514 
    1020    2959385.6    498.87053   -134.63019    143.64135    143.20449    143.86841    134.63019   0.57723006 
    1040    2959057.3    498.06085   -183.49588    143.64852    143.16772    143.88221    183.49588   0.57730872 
    1060      2960244    498.54823   -219.42109    143.65568    143.17604    143.92438    219.42109   0.57738738 
    1080    2960520.7    498.59472    79.534535    143.66285    143.17206    143.93466   -79.534535   0.57746604 
    1100    2960384.2    498.48921    225.46546    143.67001    143.17727     143.9156   -225.46546    0.5775447 
    1120    2961009.9    500.26307     213.6031    143.67717    143.19619    143.91983    -213.6031   0.57762336 
    1140    2961665.8    499.94901   -315.51382    143.68434    143.20793    143.93272    315.51382   0.57770202 
    1160    2961552.6    498.95397   -246.70227     143.6915    143.22199    143.90592    246.70227   0.57778068 
    1180    2960047.6      498.262    3.9058362    143.69866    143.16222    143.88567   -3.9058362   0.57785934 
    1200      2960432    499.35334    5.9443649    143.70583     143.1629     143.8965   -5.9443649     0.577938 
    1220      2960574    499.34028   -56.186249    143.71299    143.19511    143.86385    56.186249   0.57801667 
    1240    2961426.9     499.4156   -321.35672    143.72016    143.20799    143.88518    321.35672   0.57809533 
    1260    2960063.9    500.87914   -144.16221    143.72732    143.17977    143.84014    144.16221   0.57817399 
    1280    2958782.1    500.92716    261.36731    143.73448    143.19302    143.75739   -261.36731   0.57825265 
    1300    2959288.2    500.48847      160.067    143.74165    143.21987    143.74785     -160.067   0.57833131 
    1320    2959596.9      500.855    177.30346    143.74881    143.23954    143.73594   -177.30346   0.57840997 
    1340    2958623.5    501.50536    9.6506272    143.75597    143.24731    143.67371   -9.6506272   0.57848863 
    1360    2958067.6    500.89092   -89.268638    143.76314    143.18823    143.69883    89.268638   0.57856729 
    1380    2958395.9    499.79499   -240.36044     143.7703    143.23185    143.66385    240.36044   0.57864595 
    1400    2956708.1    501.16503    111.10247    143.77747    143.23515    143.57142   -111.10247   0.57872461 
    1420    2955827.7    501.68416   -112.74355    143.78463    143.23803    143.51864    112.74355   0.57880327 
    1440    2955773.3    501.61853   -151.31398    143.79179    143.20683    143.54012    151.31398   0.57888194 
    1460    2956386.8    499.40742   -79.759395    143.79896    143.21769    143.55187    79.759395    0.5789606 
    1480    2957207.9    499.69355    52.391028    143.80612    143.18452    143.61785   -52.391028   0.57903926 
    1500    2957181.8    500.89461    62.856957    143.81328    143.15917    143.63486   -62.856957   0.57911792 
    1520    2956588.1    500.03386     182.4309    143.82045    143.15138    143.60669    -182.4309   0.57919658 
    1540    2958162.8    499.22112    366.58171    143.82761    143.26219    143.56488   -366.58171   0.57927524 
    1560    2957968.3    500.62003    239.76426    143.83478    143.27224    143.53823   -239.76426    0.5793539 
    1580    2957183.4    499.66575   -36.257714    143.84194    143.23744    143.52785    36.257714   0.57943256 
    1600    2957720.3     499.4585   -186.23275     143.8491    143.28293    143.50118    186.23275   0.57951122 
    1620    2958187.1      499.614   -369.13831    143.85627    143.28252     143.5171    369.13831   0.57958988 
    1640    2958710.4     498.8696   -40.182899    143.86343     143.3169     143.5009    40.182899   0.57966854 
    1660    2958669.3    499.77505   -226.47965     143.8706    143.28149    143.52722    226.47965   0.57974721 
    1680    2959201.5    500.12033   -234.36292    143.87776    143.27579    143.55161    234.36292   0.57982587 
    1700      2959313    499.16411   -207.54577    143.88492    143.29395    143.53167    207.54577   0.57990453 
    1720    2957791.1    499.29283    170.44327    143.89209    143.29873    143.44594   -170.44327   0.57998319 
    1740    2956681.9    499.51121    225.11707    143.89925    143.24509    143.43869   -225.11707   0.58006185 
    1760    2957092.4     498.9366    88.805954    143.90641    143.22839     143.4682   -88.805954   0.58014051 
    1780    2958544.9    499.49111   -114.15635    143.91358    143.25382    143.50604    114.15635   0.58021917 
    1800    2959736.3    500.72837   -104.09695    143.92074    143.24062    143.56991    104.09695   0.58029783 
    1820    2960822.2    499.50438    121.46956    143.92791    143.24065    143.61541   -121.46956   0.58037649 
    1840    2961230.4    499.51941    80.369677    143.93507    143.24399    143.62471   -80.369677   0.58045515 
    1860    2960862.4    500.73515      35.5524    143.94223    143.24896    143.59474     -35.5524   0.58053381 
    1880    2962497.9    499.56609   -404.45885     143.9494    143.23861    143.67728    404.45885   0.58061248 
    1900    2962472.8    499.21927   -439.19401    143.95656    143.24846    143.65903    439.19401   0.58069114 
    1920    2960878.9    500.53028    74.268879    143.96372    143.23316    143.58993   -74.268879    0.5807698 
    1940    2961941.3    500.20378    91.505674    143.97089    143.23417     143.6333   -91.505674   0.58084846 
    1960      2962484    499.79347    75.747082    143.97805    143.23995    143.64667   -75.747082   0.58092712 
    1980    2963350.6    498.99318   -209.19134    143.98522    143.29344    143.62791    209.19134   0.58100578 
    2000    2962896.2    500.94443      40.5364    143.99238    143.29905    143.59312     -40.5364   0.58108444 
    2020      2963333    500.07865   -61.933578    143.99954    143.29857    143.60762    61.933578    0.5811631 
    2040    2963107.1    500.22091   -87.741963    144.00671    143.29371     143.5944    87.741963   0.58124176 
    2060    2963193.2    500.60556     3.836174    144.01387    143.27138    143.61381    -3.836174   0.58132042 
    2080    2963330.8    499.85199   -53.513827    144.02104    143.23278    143.65204    53.513827   0.58139908 
    2100      2963498      500.168    38.735204     144.0282    143.28356    143.60209   -38.735204   0.58147775 
    2120    2963191.7    499.23675    118.96219    144.03536    143.28738    143.57627   -118.96219   0.58155641 
    2140    2963405.4    499.14957    15.826777    144.04253    143.26794    143.59897   -15.826777   0.58163507 
    2160    2965180.5    499.32815   -106.54576    144.04969    143.34913    143.59646    106.54576   0.58171373 
    2180      2963411    499.79986    234.76028    144.05685    143.31546    143.53735   -234.76028   0.58179239 
    2200    2962759.4    500.62281    18.316182    144.06402    143.32135    143.49275   -18.316182   0.58187105 
    2220    2962065.5    500.21285    -9.677016    144.07118    143.33227    143.44108     9.677016   0.58194971 
    2240    2962751.5    500.18574    38.457469    144.07835    143.32978    143.46966   -38.457469   0.58202837 
    2260    2963019.1    500.61265    25.431473    144.08551    143.33462    143.47065   -25.431473   0.58210703 
    2280    2962672.3    500.42828     159.2412    144.09267    143.31323    143.46813    -159.2412   0.58218569 
    2300    2961964.4    499.59189    177.01541    144.09984    143.31484     143.4251   -177.01541   0.58226435 
    2320    2962411.1    499.94539   -114.77224      144.107    143.32304     143.4314    114.77224   0.58234302 
    2340    2962685.4    499.63132   -178.97049    144.11416    143.32398    143.43661    178.97049   0.58242168 
    2360    2961694.3    499.30693    4.3072561    144.12133    143.33086    143.37461   -4.3072561   0.58250034 
    2380    2962060.7    500.32536    14.959835    144.12849    143.28744    143.42868   -14.959835     0.582579 
    2400    2962499.1    500.32012    139.77442    144.13566    143.26486    143.46539   -139.77442   0.58265766 
    2420    2963054.6    500.06052   -215.92846    144.14282    143.29713    143.45284    215.92846   0.58273632 
    2440    2962177.7    498.33151    55.916969    144.14998    143.22871    143.47177   -55.916969   0.58281498 
    2460    2961640.1    498.97114    338.74961    144.15715    143.17599    143.49141   -338.74961   0.58289364 
    2480    2962328.9    498.79368    302.10277    144.16431    143.20713    143.48645   -302.10277    0.5829723 
    2500    2962898.2    498.81003    20.185994    144.17147    143.24353    143.47042   -20.185994   0.58305096 
    2520    2962955.2    498.78908   -251.93519    144.17864    143.22254    143.48708    251.93519   0.58312962 
    2540    2962239.1    498.45823   -257.55349     144.1858    143.15404    143.51391    257.55349   0.58320829 
    2560    2961175.2    498.37496   -58.920909    144.19297    143.13347    143.47586    58.920909   0.58328695 
    2580      2960149    499.68571    130.75753    144.20013    143.08038    143.47223   -130.75753   0.58336561 
    2600    2959952.3    499.64124    94.430235    144.20729    143.08008    143.45587   -94.430235   0.58344427 
    2620    2961020.7    500.06543   -212.17722    144.21446    143.12686    143.45362    212.17722   0.58352293 
    2640    2961892.2     500.2563   -168.80365    144.22162    143.09228    143.52338    168.80365   0.58360159 
    2660      2960022    501.04171    37.489273    144.22879    143.04706    143.47098   -37.489273   0.58368025 
    2680    2960973.7    500.67965    168.63702    144.23595    143.08786    143.46905   -168.63702   0.58375891 
    2700    2960460.1    499.52829    32.087854    144.24311    143.04174     143.4833   -32.087854   0.58383757 
    2720    2959472.6    499.81851    258.04233    144.25028    142.97743    143.49283   -258.04233   0.58391623 
    2740    2960856.1    500.52694   -201.42246    144.25744     142.9967    143.53343    201.42246    0.5839949 
    2760    2962064.3     500.6429   -374.83631     144.2646    143.03757    143.54384    374.83631   0.58407356 
    2780      2961289    501.42726   -137.69987    144.27177    143.02267    143.51409    137.69987   0.58415222 
    2800    2960244.1      501.445   -54.742368    144.27893     142.9696    143.50959    54.742368   0.58423088 
    2820    2960441.5     500.7956    88.381872     144.2861    142.97934    143.50225   -88.381872   0.58430954 
    2840    2962429.9    499.14303   -13.581752    144.29326     142.9731    143.59777    13.581752    0.5843882 
    2860    2962977.2    500.78503   -75.292915    144.30042     143.0102    143.57991    75.292915   0.58446686 
    2880      2960727    499.96977      208.311    144.30759    142.93616    143.53807     -208.311   0.58454552 
    2900    2962180.4    499.95888   -13.329915    144.31475    142.95408    143.58339    13.329915   0.58462418 
    2920    2962706.8     499.8042   -121.17825    144.32191    142.98131    143.57444    121.17825   0.58470284 
    2940    2962813.6    500.67364   -74.554971    144.32908    142.97045    143.58339    74.554971    0.5847815 
    2960    2962836.4    499.90551    26.440593    144.33624    142.96987    143.57795   -26.440593   0.58486017 
    2980    2964710.5    499.16857   -51.279877    144.34341    142.99597    143.63542    51.279877   0.58493883 
    3000    2966351.4    499.45557   -86.198641    144.35057    143.02328    143.68035    86.198641   0.58501749 
    3020    2966237.2     499.6439   -182.27716    144.35773     143.0237    143.66726    182.27716   0.58509615 
    3040    2966185.4    499.62561    197.22904     144.3649    142.98852    143.69297   -197.22904   0.58517481 
    3060    2967240.1    498.83041   -141.15943    144.37206    143.06373    143.66136    141.15943   0.58525347 
    3080    2968936.2    498.91178    -269.7743    144.37923    143.09331    143.70663     269.7743   0.58533213 
    3100    2968463.8    498.30866   -62.405632    144.38639    143.03038    143.73986    62.405632   0.58541079 
    3120      2969017    498.80582   -18.691689    144.39355     143.0598    143.72995    18.691689   0.58548945 
    3140    2969655.9    498.97808    50.244861    144.40072     143.0283     143.7854   -50.244861   0.58556811 
    3160    2971271.1    498.22153   -43.821027    144.40788    143.01694     143.8679    43.821027   0.58564677 
    3180    2971826.5    498.48011    42.641925    144.41504    143.01782    143.88677   -42.641925   0.58572544 
    3200    2972467.9     499.0898   -268.02722    144.42221    143.03589     143.8925    268.02722    0.5858041 
    3220    2972259.5    498.53559   -162.52669    144.42937    143.03379     143.8774    162.52669   0.58588276 
    3240    2971630.1    499.30213   -187.15103    144.43654    142.96531    143.90869    187.15103   0.58596142 
    3260    2971895.1    500.09408   -14.915631     144.4437    142.98739    143.89216    14.915631   0.58604008 
    3280    2971968.6    499.70152    52.887743    144.45086    143.04764    143.82798   -52.887743   0.58611874 
    3300    2972456.5    499.94022   -80.703487    144.45803    143.01527    143.87701    80.703487    0.5861974 
    3320    2972475.2    500.27344   -104.67067    144.46519    143.01083    143.87525    104.67067   0.58627606 
    3340    2973445.2    500.42981   -274.48556    144.47235    143.01345    143.91243    274.48556   0.58635472 
    3360    2973922.3    500.11512    -102.6615    144.47952    143.03615    143.90554     102.6615   0.58643338 
    3380    2973437.7    500.12338   -217.67082    144.48668     143.0878    143.82302    217.67082   0.58651204 
    3400    2971866.8    501.98277    204.19876    144.49385    143.03755     143.7904   -204.19876   0.58659071 
    3420    2971326.9    502.35075    68.936767    144.50101    142.99889    143.79603   -68.936767   0.58666937 
    3440    2970733.6    501.80353    60.287565    144.50817    142.99969    143.75938   -60.287565   0.58674803 
    3460    2969776.5    500.17789    202.69768    144.51534    142.99586    143.70979   -202.69768   0.58682669 
    3480    2968241.5    500.13762    86.543187     144.5225    142.96191     143.6625   -86.543187   0.58690535 
    3500    2969201.1    500.41588    -148.6594    144.52966    143.00764    143.65587     148.6594   0.58698401 
    3520    2969041.4    500.21724   -122.66117    144.53683    142.97161    143.67722    122.66117   0.58706267 
    3540    2968177.7    498.95843   -105.45696    144.54399    142.96858    143.63135    105.45696   0.58714133 
    3560    2968947.4    499.14329    13.838218    144.55116    142.97751     143.6525   -13.838218   0.58721999 
    3580    2968242.1    500.18173    119.45457    144.55832    143.00455    143.58411   -119.45457   0.58729865 
    3600    2968930.7    500.29832   -5.3692313    144.56548    143.00265    143.61221    5.3692313   0.58737731 
    3620    2968341.4    500.14902   -97.495029    144.57265    142.94328    143.63622    97.495029   0.58745598 
    3640    2968644.8    500.33595   -134.97012    144.57981    142.93199    143.65513    134.97012   0.58753464 
    3660    2969127.1    498.99424   -43.398973    144.58698     142.9729    143.63024    43.398973    0.5876133 
    3680      2969034    500.46185    25.871649    144.59414    142.94549    143.64616   -25.871649   0.58769196 
    3700    2967766.5    498.53247    139.65092     144.6013    142.88811    143.63538   -139.65092   0.58777062 
    3720    2969075.9    499.58924    155.29913    144.60847    142.91753    143.66206   -155.29913   0.58784928 
    3740    2968824.3    498.96201    52.611415    144.61563    142.88815     143.6723   -52.611415   0.58792794 
    3760      2969146    499.47414    105.39562    144.62279    142.92319    143.64553   -105.39562    0.5880066 
    3780    2969530.8    499.60363   -223.66624    144.62996    142.90269    143.67764    223.66624   0.58808526 
    3800      2970252    500.19271   -365.08614    144.63712    142.88052    143.72771    365.08614   0.58816392 
    3820    2970355.8    500.55432   -232.47875    144.64429    142.87088    143.73531    232.47875   0.58824258 
    3840    2969377.5    501.34364   -8.9055772    144.65145    142.89945    143.65213    8.9055772   0.58832125 
    3860    2971291.1    500.88712   -152.82738    144.65861    142.94089    143.69591    152.82738   0.58839991 
    3880    2972658.8    501.50843   -98.518227    144.66578    142.97082    143.72484    98.518227   0.58847857 
    3900    2972799.8    501.78609   -20.734503    144.67294    142.93256    143.76301    20.734503   0.58855723 
    3920    2972645.6    501.59336    355.68897     144.6801    142.95399    143.72689   -355.68897   0.58863589 
    3940      2974094    500.67929    315.68708    144.68727    142.97108    143.77261   -315.68708   0.58871455 
    3960    2974956.8     501.9865    199.46235    144.69443    142.95373    143.82466   -199.46235   0.58879321 
    3980    2975539.8    500.45612   -94.483824     144.7016    142.99175    143.80747    94.483824   0.58887187 
    4000    2977047.5    501.52027   -30.539202    144.70876    142.98441    143.88061    30.539202   0.58895053 
    4020    2977386.6     500.6775    1.4485923    144.71592    143.02193    143.85212   -1.4485923   0.58902919 
    4040    2977335.1      500.913   -86.624218    144.72309    143.01924    143.84522    86.624218   0.58910785 
    4060    2976836.3     500.3275   -340.87098    144.73025     143.0291    143.80409    340.87098   0.58918652 
    4080    2977839.8    500.57176   -360.27928    144.73742    142.99027     143.8845    360.27928   0.58926518 
    4100    2977075.8     499.3102   -95.886949    144.74458    143.00984    143.82078    95.886949   0.58934384 
    4120    2975691.7    501.11651    189.78312    144.75174    142.99519    143.76153   -189.78312    0.5894225 
    4140    2975438.8    499.82033    209.68121    144.75891    143.00901    143.72831   -209.68121   0.58950116 
    4160    2976436.9    500.52077    38.298239    144.76607    143.03563    143.74265   -38.298239   0.58957982 
    4180    2975289.9    500.18247    43.180872    144.77323    142.98912    143.72688   -43.180872   0.58965848 
    4200    2975766.6    499.22359   -41.563862     144.7804    142.97843    143.75356    41.563862   0.58973714 
    4220    2975839.7    498.74986   -128.67439    144.78756    142.97882    143.74958    128.67439    0.5898158 
    4240      2976575    499.29638   -2.9250402    144.79473    142.95842    143.79849    2.9250402   0.58989446 
    4260      2976070    499.55782   -144.66935    144.80189    142.91211    143.81358    144.66935   0.58997312 
    4280    2975544.5    500.03307    -187.3073    144.80905     142.8952    143.79808     187.3073   0.59005179 
    4300      2975998    498.84167   -156.90967    144.81622    142.86513    143.84315    156.90967   0.59013045 
    4320    2975602.3    500.21482      52.4809    144.82338    142.90751    143.77427     -52.4809   0.59020911 
    4340    2974952.3    500.16406    119.31425    144.83054    142.84592    143.79772   -119.31425   0.59028777 
    4360    2974922.2    499.49243    13.866335    144.83771    142.89351    143.74127   -13.866335   0.59036643 
    4380    2974832.4    500.12729   -46.868387    144.84487    142.90703    143.71622    46.868387   0.59044509 
    4400      2974529    499.28118   -22.414869    144.85204    142.89897    143.70256    22.414869   0.59052375 
    4420    2974418.2    498.72385    3.2552731     144.8592    142.92249    143.66645   -3.2552731   0.59060241 
    4440    2973529.1    500.85286     156.0592    144.86636    142.86065    143.67858    -156.0592   0.59068107 
    4460    2973783.9    499.62691   -135.39044    144.87353    142.88901    143.65527    135.39044   0.59075973 
    4480    2972753.4    500.19358   -74.051504    144.88069     142.8639    143.62362    74.051504   0.59083839 
    4500      2972280    500.87708    5.1263914    144.88785    142.87567    143.58182   -5.1263914   0.59091706 
    4520    2972679.8    500.91349    107.16584    144.89502    142.88912    143.58052   -107.16584   0.59099572 
    4540    2973110.9    502.11182   -218.86552    144.90218    142.93884    143.54429    218.86552   0.59107438 
    4560    2973041.4    500.55427    9.4990761    144.90935    142.93831    143.53437   -9.4990761   0.59115304 
    4580    2972664.5    500.94156   -44.299298    144.91651    142.94674    143.50062    44.299298    0.5912317 
    4600    2972913.7    501.05233    64.567957    144.92367    142.94734    143.50495   -64.567957   0.59131036 
    4620    2973727.6    500.03898    -16.30098    144.93084     142.9609    143.52353     16.30098   0.59138902 
    4640    2974460.3    501.04194    -125.6967      144.938      142.958     143.5547     125.6967   0.59146768 
    4660    2974437.7    500.62807   -69.930291    144.94517    142.96703    143.53745    69.930291   0.59154634 
    4680    2975570.5    500.53342   -77.423374    144.95233    142.97038    143.58166    77.423374     0.591625 
    4700    2973855.8    500.07033    -84.71302    144.95949    142.99998    143.46212     84.71302   0.59170366 
    4720    2973344.6     500.6184    216.25804    144.96666    143.01779    143.41252   -216.25804   0.59178233 
    4740    2973439.9    499.86693    48.027867    144.97382     143.0354    143.39237   -48.027867   0.59186099 
    4760      2973007    501.14795   -19.746394    144.98098     143.0489    143.35088    19.746394   0.59193965 
    4780    2973608.5    501.12487   -315.62045    144.98815     143.0414    143.38032    315.62045   0.59201831 
    4800    2972347.9    500.00376    -57.02888    144.99531    143.08355    143.27023     57.02888   0.59209697 
    4820    2972935.3    499.34872   -304.23214    145.00248    143.05876     143.3163    304.23214   0.59217563 
    4840    2973218.7    499.47964    -317.3829    145.00964    143.04466    143.33701     317.3829   0.59225429 
    4860    2972314.5    498.48307   -43.745646     145.0168    143.01012    143.32094    43.745646   0.59233295 
    4880    2972259.3    499.45082    107.71096    145.02397     142.9973    143.32405   -107.71096   0.59241161 
    4900      2973184    499.03455   -204.09383    145.03113    142.96581    143.39314    204.09383   0.59249027 
    4920    2971705.6    499.82018    -224.9988    145.03829    142.94351    143.33711     224.9988   0.59256894 
    4940    2972816.2    500.76333   -219.96815    145.04546    142.91515    143.41205    219.96815    0.5926476 
    4960    2972992.4    499.37645   -205.99541    145.05262    142.91507    143.41355    205.99541   0.59272626 
    4980    2972367.5    500.31478   -5.8719059    145.05979    142.85915    143.43244    5.8719059   0.59280492 
    5000    2971790.5    500.52859    73.132256    145.06695    142.86925    143.38739   -73.132256   0.59288358 
    5020    2971613.5    499.77777    127.33769    145.07411    142.86614    143.37488   -127.33769   0.59296224 
    5040      2972629    500.05962   -74.059956    145.08128    142.88291    143.39997    74.059956    0.5930409 
    5060    2971477.4    499.27016   -249.58366    145.08844    142.85498    143.36535    249.58366   0.59311956 
    5080    2971157.3     499.9201   -98.798525    145.09561    142.78451    143.41358    98.798525   0.59319822 
    5100    2971313.9    500.19987    19.775022    145.10277    142.80123    143.39727   -19.775022   0.59327688 
    5120    2972416.9    500.19843    118.34548    145.10993    142.86211    143.38229   -118.34548   0.59335554 
    5140    2972377.1    499.70958    -149.9523     145.1171    142.84467     143.3908     149.9523   0.59343421 
    5160      2973182    500.39314   -143.39146    145.12426    142.89176    143.37528    143.39146   0.59351287 
    5180    2972330.9    500.91709   -66.894979    145.13142    142.87739    143.34159    66.894979   0.59359153 
    5200    2972270.4    500.29172    67.418587    145.13859    142.89909    143.30982   -67.418587   0.59367019 
    5220    2972044.3     501.7171    133.86325    145.14575    142.89227    143.29868   -133.86325   0.59374885 
    5240    2972513.3    500.29971   -247.78218    145.15292    142.85822    143.34839    247.78218   0.59382751 
    5260    2973454.3     500.9051   -258.83318    145.16008    142.92156    143.32314    258.83318   0.59390617 
    5280    2972892.1    500.28979   -100.73991    145.16724    142.87993    143.33073    100.73991   0.59398483 
    5300    2973795.8    501.46997   -282.42157    145.17441    142.93858    143.30839    282.42157   0.59406349 
    5320    2974044.9    501.16176   -152.39985    145.18157    142.96131    143.29053    152.39985   0.59414215 
    5340    2973627.2    501.13783   -76.155563    145.18873    142.90056    143.32425    76.155563   0.59422081 
    5360    2973014.7    499.91906   -11.469078     145.1959      142.936    143.25213    11.469078   0.59429948 
    5380    2972193.4    501.44573    194.97403    145.20306    142.90469    143.23686   -194.97403   0.59437814 
    5400    2972637.2     500.3854    289.37629    145.21023    142.93739    143.21841   -289.37629    0.5944568 
    5420    2974190.3    500.90408   -212.43263    145.21739    142.97658     143.2469    212.43263   0.59453546 
    5440    2974904.8    500.50275   -186.28149    145.22455    142.98328    143.26753    186.28149   0.59461412 
    5460    2975378.7    500.25138   -347.90013    145.23172    143.04255    143.22392    347.90013   0.59469278 
    5480    2974621.4    498.49271   -296.12406    145.23888    143.04677    143.17617    296.12406   0.59477144 
    5500    2973866.6    499.21109    131.35804    145.24604    142.99956    143.18004   -131.35804    0.5948501 
    5520    2974268.7    498.81132    72.902993    145.25321    142.98088    143.21105   -72.902993   0.59492876 
    5540    2975207.9    499.60706   -136.61596    145.26037    143.00156    143.22849    136.61596   0.59500742 
    5560    2975589.3    499.17675   -212.94491    145.26754    143.04916    143.19212    212.94491   0.59508608 
    5580    2974811.6    499.55091   -193.55458     145.2747     143.0537    143.14309    193.55458   0.59516475 
    5600    2976416.7    499.31205   -11.212725    145.28186     143.0863    143.18063    11.212725   0.59524341 
    5620    2975335.2    500.22722    1.4549025    145.28903    143.06985    143.13801   -1.4549025   0.59532207 
    5640    2975599.1    500.42656     17.71659    145.29619    143.05854    143.15496    -17.71659   0.59540073 
    5660    2975540.5    499.56794   -78.873944    145.30336    143.08464    143.11897    78.873944   0.59547939 
    5680    2974831.1    500.28388   -79.248297    145.31052    143.06364     143.0988    79.248297   0.59555805 
    5700    2974772.2    500.55486   -66.329396    145.31768    143.07842    143.07414    66.329396   0.59563671 
    5720    2975176.3    499.99774     -229.464    145.32485    143.04709    143.11785      229.464   0.59571537 
    5740    2974837.6    500.72478   -190.67654    145.33201    143.02462    143.11698    190.67654   0.59579403 
    5760    2972926.3    500.99318    22.274347    145.33917    142.98698    143.05563   -22.274347   0.59587269 
    5780    2973571.4     500.9279   -144.19638    145.34634    142.97792    143.08869    144.19638   0.59595135 
    5800    2973484.8     501.0043    154.43769     145.3535     142.9814    143.07399   -154.43769   0.59603002 
    5820    2973910.8     500.1907   -4.8597303    145.36067    143.00577    143.06305    4.8597303   0.59610868 
    5840    2973013.5    502.71945     98.29985    145.36783    142.97572    143.04289    -98.29985   0.59618734 
    5860    2973377.1    501.83257    -187.6103    145.37499    142.96496     143.0641     187.6103     0.596266 
    5880    2973809.3     499.9482   -100.09829    145.38216    142.99174    143.05105    100.09829   0.59634466 
    5900    2973450.6    501.68875    92.710706    145.38932    142.97156    143.04693   -92.710706   0.59642332 
    5920    2972964.3    501.95794    263.84582    145.39648    142.93428     143.0538   -263.84582   0.59650198 
    5940    2974070.4    502.05719   -35.271118    145.40365    142.93405     143.1002    35.271118   0.59658064 
    5960    2974224.5    500.77827   -243.97689    145.41081    142.91385     143.1208    243.97689    0.5966593 
    5980      2974347    501.15532   -164.99055    145.41798    142.84363    143.18999    164.99055   0.59673796 
    6000    2975044.3    501.83286    -331.9645    145.42514    142.84969    143.21043     331.9645   0.59681662 
    6020    2974362.8    500.12092   -162.71159     145.4323    142.79856    143.22184    162.71159   0.59689529 
    6040    2974819.1    500.22309   -22.956894    145.43947     142.7818    143.25357    22.956894   0.59697395 
    6060    2974815.3    500.59483   -38.740119    145.44663    142.77991    143.24822    38.740119   0.59705261 
    6080    2975024.5    500.86512   -37.853712     145.4538    142.81076    143.22029    37.853712   0.59713127 
    6100    2974484.5    499.49924   -166.75295    145.46096    142.79524    143.20281    166.75295   0.59720993 
    6120    2975671.8    500.61936     11.04218    145.46812    142.82137    143.22671    -11.04218   0.59728859 
    6140    2976270.6    500.58312   -42.889897    145.47529    142.85197    143.21779    42.889897   0.59736725 
    6160    2975795.9    499.29093   -143.03806    145.48245    142.86634     143.1735    143.03806   0.59744591 
    6180    2974912.7    499.69124   -92.043353    145.48961    142.85992    143.13038    92.043353   0.59752457 
    6200    2974697.1    498.95241   -93.716666    145.49678     142.8428    143.13011    93.716666   0.59760323 
    6220    2975726.9    500.14304    -120.9134    145.50394    142.81094    143.20455     120.9134   0.59768189 
    6240    2974606.7    499.03539   -91.910101    145.51111     142.7857     143.1689    91.910101   0.59776056 
    6260    2974149.8    499.86897   -86.080215    145.51827    142.75928    143.16635    86.080215   0.59783922 
    6280    2974804.4    499.53544   -30.008134    145.52543    142.82374    143.12619    30.008134   0.59791788 
    6300    2976903.4    500.35216   -37.430877     145.5326    142.89314    143.15057    37.430877   0.59799654 
    6320    2975578.9    498.90973    54.017791    145.53976    142.80754     143.1656   -54.017791    0.5980752 
    6340    2974652.4    499.04673    120.50701    145.54692    142.78546     143.1361   -120.50701   0.59815386 
    6360    2975834.1    500.41074   -45.175597    145.55409    142.78578     143.1856    45.175597   0.59823252 
    6380    2977026.1    501.70642   -146.32073    145.56125    142.76868    143.25306    146.32073   0.59831118 
    6400    2975588.8    500.77941   -117.99504    145.56842    142.71338    143.23234    117.99504   0.59838984 
    6420      2974604    501.30463   -224.20325    145.57558    142.67206    143.21935    224.20325    0.5984685 
    6440    2975387.4    501.33141   -295.75176    145.58274    142.75911    143.16267    295.75176   0.59854716 
    6460    2975378.2    501.15863   -161.42745    145.58991     142.7599    143.15439    161.42745   0.59862583 
    6480    2973870.9    500.76819   -117.51986    145.59707    142.73225    143.10254    117.51986   0.59870449 
    6500    2973859.7    501.11416    -58.62165    145.60423    142.72411    143.10313     58.62165   0.59878315 
    6520    2973942.5    500.44374    15.850408     145.6114    142.70778    143.11644   -15.850408   0.59886181 
    6540      2972988    499.91837   -202.49623    145.61856    142.68828    143.08303    202.49623   0.59894047 
    6560    2971411.9    499.46443    -4.761961    145.62573    142.66434    143.02414     4.761961   0.59901913 
    6580    2970379.6    499.82146    77.498573    145.63289    142.62836    143.00348   -77.498573   0.59909779 
    6600    2970986.4    500.94592    104.01146    145.64005    142.63123    143.02278   -104.01146   0.59917645 
    6620    2970124.5    500.36999   -48.956895    145.64722    142.61171    142.99382    48.956895   0.59925511 
    6640    2970395.2     498.7291    13.187412    145.65438    142.65252    142.95891   -13.187412   0.59933377 
    6660    2971453.1    499.20038   -164.61236    145.66155    142.63871    143.01663    164.61236   0.59941243 
    6680    2971077.2    498.65131   -290.03295    145.66871    142.64586    142.98435    290.03295    0.5994911 
    6700      2970635    498.31999   -108.39002    145.67587    142.65198     142.9499    108.39002   0.59956976 
    6720    2970278.6    498.67549    117.88429    145.68304    142.56341    143.01452   -117.88429   0.59964842 
    6740    2971945.2    498.46855   -116.50735     145.6902     142.5853    143.06576    116.50735   0.59972708 
    6760    2972326.9    499.95907   -56.082527    145.69736    142.56343    143.09904    56.082527   0.59980574 
    6780    2971874.4    499.85823   -39.593084    145.70453    142.59199    143.04157    39.593084    0.5998844 
    6800    2973127.4    499.97048   -105.69964    145.71169    142.62434    143.06239    105.69964   0.59996306 
    6820    2973082.1    499.69291   -76.225069    145.71886    142.61334    143.06421    76.225069   0.60004172 
    6840    2973585.7    499.73267    63.065901    145.72602    142.63563    143.05905   -63.065901   0.60012038 
    6860    2975129.8    500.56974   -152.83414    145.73318    142.64606    143.11583    152.83414   0.60019904 
    6880    2975402.7    500.63684   -172.60387    145.74035    142.66685    143.10107    172.60387    0.6002777 
    6900    2976430.3     499.7483   -231.03162    145.74751     142.7064    143.10378    231.03162   0.60035637 
    6920    2975673.3    500.42112    13.002882    145.75467     142.6503    143.11661   -13.002882   0.60043503 
    6940    2975627.2    500.10742    65.964892    145.76184    142.69571    143.06182   -65.964892   0.60051369 
    6960    2976417.8    500.06722    -79.48156      145.769    142.78477    143.00356     79.48156   0.60059235 
    6980    2975913.3    500.19822   -115.97273    145.77617    142.70359    143.05362    115.97273   0.60067101 
    7000    2977644.2    500.56965   -120.71846    145.78333    142.73348    143.09981    120.71846   0.60074967 
    7020      2977170    500.50672    54.412029    145.79049     142.6915    143.11208   -54.412029   0.60082833 
    7040    2975996.3    501.78512     158.2326    145.79766    142.68415    143.05601    -158.2326   0.60090699 
    7060    2976525.1    499.93763   -26.702364    145.80482    142.68344    143.07511    26.702364   0.60098565 
    7080      2976458     500.1359   -47.939952    145.81199    142.70051    143.04774    47.939952   0.60106431 
    7100    2977202.1    499.47562   -84.846187    145.81915    142.73171     143.0452    84.846187   0.60114298 
    7120    2976362.7    499.39347   -148.50353    145.82631    142.69142    143.03822    148.50353   0.60122164 
    7140    2975699.9    499.01174    44.436444    145.83348    142.66286    143.02796   -44.436444    0.6013003 
    7160    2976426.9    499.60603   -118.88316    145.84064     142.7093    143.00934    118.88316   0.60137896 
    7180    2976545.5    499.50456   -93.297717     145.8478    142.68216    143.03521    93.297717   0.60145762 
    7200    2976332.3    497.71792   -40.520179    145.85497    142.66752    143.03262    40.520179   0.60153628 
    7220    2976673.9    498.59093    -134.9206    145.86213    142.71338    142.99603     134.9206   0.60161494 
    7240    2976856.2    499.43553   -2.6577066     145.8693    142.65675    143.05454    2.6577066    0.6016936 
    7260    2977000.5    498.74445   -73.424995    145.87646    142.62235    143.08896    73.424995   0.60177226 
    7280    2976785.1    499.24139   -29.896344    145.88362    142.60156    143.09243    29.896344   0.60185092 
    7300    2976319.1    498.40137   -62.119241    145.89079    142.58342    143.08121    62.119241   0.60192958 
    7320      2977478    499.11383   -342.28374    145.89795    142.57513    143.13822    342.28374   0.60200825 
    7340    2976575.1    499.63187   -167.11487    145.90511    142.55229     143.1107    167.11487   0.60208691 
    7360    2975020.6    499.90589    185.55019    145.91228    142.49955    143.08188   -185.55019   0.60216557 
    7380    2976717.5    499.87537    28.290685    145.91944    142.54034     143.1155   -28.290685   0.60224423 
    7400    2977367.8    501.57472   -103.78948    145.92661    142.60338    143.07645    103.78948   0.60232289 
    7420    2976460.4    500.12728    11.844311    145.93377    142.59486    143.03438   -11.844311   0.60240155 
    7440    2976716.4    500.05171   -102.06784    145.94093    142.59287    143.04166    102.06784   0.60248021 
    7460    2977309.9    500.05437    -142.7006     145.9481     142.5961    143.05991     142.7006   0.60255887 
    7480    2976649.1    499.59449   -190.50549    145.95526    142.58528    143.03199    190.50549   0.60263753 
    7500    2975831.8    500.15746   -385.78348    145.96242    142.51767    143.05354    385.78348   0.60271619 
    7520    2976724.9    499.94166    -232.7758    145.96959    142.49117    143.11606     232.7758   0.60279485 
    7540    2976414.9    500.38678   -82.187322    145.97675    142.52704    143.05812    82.187322   0.60287352 
    7560    2976372.1    500.20877   -46.683764    145.98392     142.5621    143.01386    46.683764   0.60295218 
    7580    2976360.7    501.22522    50.661115    145.99108    142.56454    143.00385   -50.661115   0.60303084 
    7600    2976055.9    500.23688    59.846009    145.99824    142.56912     142.9776   -59.846009    0.6031095 
    7620    2975951.8    500.39417   -111.25801    146.00541    142.57026    142.96443    111.25801   0.60318816 
    7640    2976453.9     499.3848   -347.14627    146.01257    142.55407    142.99778    347.14627   0.60326682 
    7660    2977444.2    500.52308   -237.47596    146.01974     142.5243    143.06822    237.47596   0.60334548 
    7680    2976320.8    500.18936    -83.78701     146.0269    142.53538    142.99611     83.78701   0.60342414 
    7700    2974855.1    499.47832   -58.015065    146.03406    142.48953    142.96466    58.015065    0.6035028 
    7720    2975257.8    498.67708   -25.464321    146.04123    142.45659    143.01006    25.464321   0.60358146 
    7740    2976339.8    499.01178   -351.36086    146.04839    142.50144    143.01002    351.36086   0.60366012 
    7760    2974966.8    499.28802   -182.63953    146.05555    142.43337    143.00536    182.63953   0.60373879 
    7780    2973492.3    499.09346    32.213197    146.06272     142.3973    142.96367   -32.213197   0.60381745 
    7800    2974645.8        498.6   -6.0771376    146.06988    142.38038    143.02911    6.0771376   0.60389611 
    7820    2974893.8     497.9532    168.84119    146.07705     142.3903    143.02405   -168.84119   0.60397477 
    7840    2973490.5    498.69236    248.63095    146.08421    142.29971    143.04058   -248.63095   0.60405343 
    7860    2975518.5    499.98331   -73.646649    146.09137    142.31116     143.1196    73.646649   0.60413209 
    7880    2975408.2    499.78903   -208.40583    146.09854     142.3637    143.05446    208.40583   0.60421075 
    7900    2975624.1    499.88673   -284.74285     146.1057    142.37804    143.04343    284.74285   0.60428941 
    7920    2975679.2    499.13769   -445.80896    146.11286    142.31007    143.10737    445.80896   0.60436807 
    7940    2975257.3    500.14646   -194.37443    146.12003    142.33357    143.05645    194.37443   0.60444673 
    7960    2976709.7    500.58024    18.048038    146.12719    142.34921    143.10354   -18.048038   0.60452539 
    7980    2976667.6    499.87147   -232.59252    146.13436    142.32731    143.11652    232.59252   0.60460406 
    8000    2976236.1    500.88687    46.067062    146.14152     142.3672    143.04867   -46.067062   0.60468272 
    8020    2976127.7    501.40547   -64.413691    146.14868    142.32863     143.0752    64.413691   0.60476138 
    8040    2977904.4    501.04154   -440.21766    146.15585    142.36754    143.11448    440.21766   0.60484004 
    8060    2977123.2    499.35881    -221.8002    146.16301    142.31631    143.12142     221.8002    0.6049187 
    8080    2976222.6    498.80507   -38.746282    146.17018    142.27204    143.11564    38.746282   0.60499736 
    8100    2976417.7    502.25895    153.18269    146.17734    142.22127     143.1691   -153.18269   0.60507602 
    8120    2975859.2    500.78387    10.021582     146.1845    142.17898    143.17779   -10.021582   0.60515468 
    8140    2976896.3    499.66188    1.1098267    146.19167    142.20613    143.19333   -1.1098267   0.60523334 
    8160    2977621.4    500.57658   -35.827908    146.19883    142.20458    143.22275    35.827908     0.605312 
    8180    2977766.8    500.44682   -11.926073    146.20599     142.1941    143.23328    11.926073   0.60539066 
    8200    2980319.1    499.60293   -382.49374    146.21316    142.27759     143.2649    382.49374   0.60546933 
    8220    2980956.2    499.09738   -361.22154    146.22032    142.29045    143.27556    361.22154   0.60554799 
    8240      2980778    500.04185   -118.30683    146.22749    142.24256    143.30821    118.30683   0.60562665 
    8260    2980574.7    499.90024   -110.70547    146.23465    142.30773     143.2258    110.70547   0.60570531 
    8280      2980568    499.32515    6.9423013    146.24181    142.32849    143.19757   -6.9423013   0.60578397 
    8300    2980990.5    498.66958    5.0261137    146.24898    142.35112    143.18808   -5.0261137   0.60586263 
    8320    2981280.3    498.80021   -272.67334    146.25614     142.3484    143.19772    272.67334   0.60594129 
    8340    2981262.5    498.30786   -254.51463     146.2633    142.37474    143.16336    254.51463   0.60601995 
    8360    2980824.9     499.3536   -212.59039    146.27047    142.33669     143.1736    212.59039   0.60609861 
    8380      2980284    497.32245   -73.887941    146.27763    142.31056    143.16689    73.887941   0.60617727 
    8400      2979811    497.83335   -103.88025     146.2848    142.30329    143.14447    103.88025   0.60625593 
    8420    2980124.9    497.86267     -103.271    146.29196    142.34577    143.10982      103.271    0.6063346 
    8440    2980152.5    499.77393   -54.630259    146.29912    142.29442    143.15578    54.630259   0.60641326 
    8460    2980360.9    497.81308   -127.99055    146.30629    142.32544    143.12758    127.99055   0.60649192 
    8480    2980078.2    498.57058   -82.091872    146.31345    142.33259    143.09981    82.091872   0.60657058 
    8500    2979150.9    499.44983   -208.51885    146.32061    142.31454    143.06642    208.51885   0.60664924 
    8520    2978630.6    499.40812   -217.21004    146.32778    142.32279    143.02614    217.21004    0.6067279 
    8540    2978358.6    498.66316    35.831804    146.33494    142.34265    142.98613   -35.831804   0.60680656 
    8560    2979269.2    500.58173   -132.95697    146.34211    142.34399     143.0215    132.95697   0.60688522 
    8580    2978886.4    499.74053   -272.07469    146.34927    142.35343    142.98663    272.07469   0.60696388 
    8600    2978756.8    500.06428   -82.938886    146.35643    142.33316    142.99378    82.938886   0.60704254 
    8620    2978889.7    500.38586   -4.8983103     146.3636     142.3629    142.96329    4.8983103    0.6071212 
    8640    2979145.7    499.79983    12.259777    146.37076    142.34404    142.98752   -12.259777   0.60719987 
    8660    2978089.7    499.78128   -55.304079    146.37793    142.31799      142.956    55.304079   0.60727853 
    8680    2978170.7    500.81564   -166.39356    146.38509    142.28719    142.98384    166.39356   0.60735719 
    8700      2979544    500.87241   -169.29398    146.39225    142.27577    143.05425    169.29398   0.60743585 
    8720      2978679     500.3788   -57.094863    146.39942    142.28413    142.99732    57.094863   0.60751451 
    8740    2978748.9    500.33964    48.299899    146.40658    142.26386    143.01405   -48.299899   0.60759317 
    8760    2978590.8    500.81928    137.85599    146.41374    142.30144     142.9617   -137.85599   0.60767183 
    8780    2979837.7    500.96108   -268.15095    146.42091    142.35201    142.96374    268.15095   0.60775049 
    8800    2979110.4    499.51402   -400.58016    146.42807    142.37509    142.89869    400.58016   0.60782915 
    8820      2978046    500.03958   -181.87719    146.43524    142.36698    142.84878    181.87719   0.60790781 
    8840    2977013.4    500.17726    -5.738461     146.4424    142.32915    142.83022     5.738461   0.60798647 
    8860    2977065.4    500.34494   -168.18626    146.44956    142.33015    142.82472    168.18626   0.60806514 
    8880    2977780.4    500.27017   -211.97518    146.45673    142.36098     142.8211    211.97518    0.6081438 
    8900    2977152.1    500.40616    4.1340254    146.46389    142.34283    142.80218   -4.1340254   0.60822246 
    8920    2976518.7    500.49144    199.70527    146.47105    142.39212    142.71541   -199.70527   0.60830112 
    8940    2976110.1    499.85411    182.69538    146.47822    142.39942    142.68151   -182.69538   0.60837978 
    8960    2977116.1    498.78118   -56.386508    146.48538    142.38581    142.73641    56.386508   0.60845844 
    8980    2978391.6    500.18977   -148.39573    146.49255    142.43775    142.73851    148.39573    0.6085371 
    9000    2978700.2     499.0727   -121.68453    146.49971    142.39435    142.78982    121.68453   0.60861576 
    9020    2978604.3     499.8556    -68.06734    146.50687    142.41899    142.75355     68.06734   0.60869442 
    9040      2978667    499.57171   -69.738945    146.51404    142.44113    142.72738    69.738945   0.60877308 
    9060    2978827.5    500.18956   -138.45598     146.5212    142.50038    142.66875    138.45598   0.60885174 
    9080    2977912.4    497.90453   -27.691071    146.52837    142.49963    142.61871    27.691071   0.60893041 
    9100    2977690.5     499.4713   -55.945485    146.53553    142.48528    142.61547    55.945485   0.60900907 
    9120    2978147.7    499.81621   -56.741631    146.54269    142.49141    142.62425    56.741631   0.60908773 
    9140    2978001.7    499.78349    50.500782    146.54986    142.47803    142.62369   -50.500782   0.60916639 
    9160    2978066.8     499.6577     102.0549    146.55702    142.42814    142.66979    -102.0549   0.60924505 
    9180    2978099.5    499.66776   -154.63323    146.56418    142.43274    142.65977    154.63323   0.60932371 
    9200    2977341.7    499.58992   -130.15097    146.57135    142.42627    142.62297    130.15097   0.60940237 
    9220    2977410.6    500.24695   -195.08752    146.57851    142.40232    142.64329    195.08752   0.60948103 
    9240    2977458.3    500.68029   -436.05346    146.58568    142.42556    142.61533    436.05346   0.60955969 
    9260      2978373    501.17983   -355.99562    146.59284    142.42254     142.6552    355.99562   0.60963835 
    9280      2976244    500.00664   -138.56227        146.6    142.39656    142.57226    138.56227   0.60971702 
    9300    2976553.8    499.79914   -130.99421    146.60717    142.38539    142.59133    130.99421   0.60979568 
    9320    2978126.6    502.25801    -272.8766    146.61433    142.46679    142.57819     272.8766   0.60987434 
    9340    2977702.7    500.78044     246.4776    146.62149    142.40315    142.61464    -246.4776     0.609953 
    9360    2978023.1    499.79043    93.764909    146.62866    142.36868    142.65754   -93.764909   0.61003166 
    9380    2978733.1    500.11664   -25.375659    146.63582    142.34783    142.70549    25.375659   0.61011032 
    9400    2979535.8     500.6002   -242.49457    146.64299    142.35866     142.7261    242.49457   0.61018898 
    9420    2979902.6    500.75839   -114.49777    146.65015    142.37874    142.71658    114.49777   0.61026764 
    9440    2979686.4    500.25571    -30.81041    146.65731    142.35782    142.72022     30.81041    0.6103463 
    9460    2979958.9    499.70291      98.6545    146.66448    142.35978    142.72434     -98.6545   0.61042496 
    9480      2981912    499.86615   -258.58347    146.67164    142.39512    142.77546    258.58347   0.61050362 
    9500      2981493    500.93092   -309.53045     146.6788    142.35508    142.78857    309.53045   0.61058229 
    9520    2980897.7    500.79519   -254.42514    146.68597    142.34193    142.76628    254.42514   0.61066095 
    9540    2981826.6    499.52994   -85.671367    146.69313    142.34264    142.80308    85.671367   0.61073961 
    9560    2982762.5    499.39682    -332.0653     146.7003    142.35497    142.82856     332.0653   0.61081827 
    9580    2982679.1    499.47149    62.426206    146.70746    142.34295    142.82965   -62.426206   0.61089693 
    9600    2982532.9    499.87999    34.387064    146.71462    142.32904    142.82963   -34.387064   0.61097559 
    9620      2984565    500.33521    14.846032    146.72179    142.37949    142.86932   -14.846032   0.61105425 
    9640    2984979.2    501.80189   -312.62124    146.72895    142.33037    142.93149    312.62124   0.61113291 
    9660    2984477.5     500.3796   -181.81635    146.73612    142.30991    142.92104    181.81635   0.61121157 
    9680    2984400.5     500.3133   -229.97457    146.74328    142.27676    142.94366    229.97457   0.61129023 
    9700    2986188.5    499.99197   -375.92935    146.75044    142.38739    142.91121    375.92935   0.61136889 
    9720    2985805.3    499.52588   -306.33898    146.75761    142.33592    142.93755    306.33898   0.61144756 
    9740    2985350.4     499.4414   -301.29506    146.76477    142.29382    142.95109    301.29506   0.61152622 
    9760    2984270.9    499.19478   -112.50843    146.77193    142.27727    142.90904    112.50843   0.61160488 
    9780    2984681.2    499.17674     -142.878     146.7791    142.28546    142.91348      142.878   0.61168354 
    9800    2984381.9    501.17207   -120.72868    146.78626    142.28918    142.88845    120.72868    0.6117622 
    9820    2983917.5    499.75566   -37.701616    146.79343    142.30261    142.84576    37.701616   0.61184086 
    9840    2985087.9    500.64067   -137.22943    146.80059    142.31083    142.88655    137.22943   0.61191952 
    9860    2985387.8    500.32369   -193.90746    146.80775    142.32467    142.88005    193.90746   0.61199818 
    9880    2984177.3    500.66491    31.047133    146.81492    142.29183     142.8481   -31.047133   0.61207684 
    9900    2985097.4    501.19419   0.29257146    146.82208    142.30422    142.87274  -0.29257146    0.6121555 
    9920    2985491.9    501.30497   -426.91079    146.82924    142.28404    142.90491    426.91079   0.61223416 
    9940    2984767.6    501.35228   -163.70341    146.83641    142.25541    142.89202    163.70341   0.61231283 
    9960    2985230.9    500.66013   -15.140528    146.84357    142.32863    142.83371    15.140528   0.61239149 
    9980    2986170.1    500.41242   -28.228892    146.85074    142.29863     142.9018    28.228892   0.61247015 
   10000    2986735.7    501.81704   -12.207796     146.8579    142.30318    142.91733    12.207796   0.61254881 
   10020      2986807    501.00696   -224.74135    146.86506     142.2879    142.92911    224.74135   0.61262747 
   10040    2987165.3    501.14689   -213.94335    146.87223    142.30094    142.92619    213.94335   0.61270613 
   10060    2986673.2    501.70651   -158.32471    146.87939    142.30351     142.8931    158.32471   0.61278479 
   10080    2986355.7    500.51893    -289.8584    146.88656    142.30279    142.87165     289.8584   0.61286345 
   10100    2986614.8    499.65295   -439.27975    146.89372    142.33965    142.84008    439.27975   0.61294211 
   10120    2986533.5    497.52455   -62.038097    146.90088    142.34458    142.82429    62.038097   0.61302077 
   10140    2987411.5    500.57098   -93.363516    146.90805    142.39517    142.80855    93.363516   0.61309943 
   10160    2987333.9    500.28444   -96.045995    146.91521    142.44051    142.75242    96.045995    0.6131781 
   10180    2987199.5    499.71414   -47.226916    146.92237    142.40767    142.77195    47.226916   0.61325676 
   10200    2986763.7    499.01033   -37.014879    146.92954     142.3812     142.7707    37.014879   0.61333542 
   10220    2987225.5    500.64736    -173.1282     146.9367    142.46208    142.70475     173.1282   0.61341408 
   10240    2986481.6    499.47353   -101.36913    146.94387    142.41126    142.71317    101.36913   0.61349274 
   10260    2986590.8    499.35963    -144.5993    146.95103    142.39141    142.73133     144.5993    0.6135714 
   10280    2986016.3    498.82578   -155.07849    146.95819    142.32419    142.76431    155.07849   0.61365006 
   10300    2985713.2     499.8553   -49.952384    146.96536    142.30457    142.76253    49.952384   0.61372872 
   10320    2986594.3    500.86653   -135.71357    146.97252    142.35027    142.75187    135.71357   0.61380738 
   10340    2987105.2    499.76251    -289.5132    146.97968    142.34502    142.77459     289.5132   0.61388604 
   10360    2987179.6    499.36957   -353.75563    146.98685     142.3681    142.74805    353.75563    0.6139647 
   10380    2985097.9    499.63317   -76.217957    146.99401    142.30216    142.70771    76.217957   0.61404337 
   10400    2984232.7    499.65605    76.232266    147.00118    142.25328    142.70841   -76.232266   0.61412203 
   10420    2985193.5    500.15049   -202.98638    147.00834    142.34556    142.65486    202.98638   0.61420069 
   10440    2983596.9    499.03433   -283.06377     147.0155    142.30311    142.61415    283.06377   0.61427935 
   10460    2983811.7    501.96044   -206.18845    147.02267    142.27574     142.6449    206.18845   0.61435801 
   10480    2983565.5    500.83448   -42.253067    147.02983    142.25065    142.65134    42.253067   0.61443667 
   10500    2983240.5    502.54636   -53.874897    147.03699    142.23956    142.63998    53.874897   0.61451533 
   10520    2981664.9    501.88906   -152.71492    147.04416    142.20021    142.59714    152.71492   0.61459399 
   10540    2981257.7    502.27941   -168.08954    147.05132     142.1904    142.58056    168.08954   0.61467265 
   10560    2982103.7    501.21494    -305.8242    147.05849    142.23602    142.56833     305.8242   0.61475131 
   10580    2980566.1    501.76975   -387.58372    147.06565    142.16169    142.56238    387.58372   0.61482997 
   10600    2980089.1    500.89861   -440.05625    147.07281    142.17859    142.51568    440.05625   0.61490864 
   10620    2981492.4    500.55585   -337.62059    147.07998    142.20689    142.54747    337.62059    0.6149873 
   10640    2980916.3    500.91515   -38.170648    147.08714    142.18429    142.53564    38.170648   0.61506596 
   10660    2979873.6    499.94031   -60.355823    147.09431    142.16434    142.49884    60.355823   0.61514462 
   10680    2979085.3     499.9919    -108.2624    147.10147    142.14456    142.47403     108.2624   0.61522328 
   10700    2980591.2    499.18568   -45.755396    147.10863    142.22109     142.4624    45.755396   0.61530194 
   10720      2980605    500.85368   -96.556535     147.1158    142.22456    142.45265    96.556535    0.6153806 
   10740    2979873.2    500.48293    100.15497    147.12296    142.24717     142.3881   -100.15497   0.61545926 
   10760    2980023.9    501.04459    76.495033    147.13012     142.2557    142.37982   -76.495033   0.61553792 
   10780    2980617.9    500.85499   -203.70392    147.13729    142.22872    142.42828    203.70392   0.61561658 
   10800    2981258.9    500.37924   -263.16161    147.14445    142.24023    142.44045    263.16161   0.61569524 
   10820    2981870.5    499.93333   -157.10759    147.15162    142.31558    142.38731    157.10759   0.61577391 
   10840    2981595.3    500.49349   -154.70917    147.15878    142.27233    142.41052    154.70917   0.61585257 
   10860    2982741.1    499.99364   -250.68996    147.16594    142.28708    142.44355    250.68996   0.61593123 
   10880    2982456.3    499.29585   -151.03371    147.17311     142.2533    142.45683    151.03371   0.61600989 
   10900      2982758    500.37118   -7.7336432    147.18027    142.20651    142.51118    7.7336432   0.61608855 
   10920    2983146.9    499.95467    143.07932    147.18743    142.22934    142.49995   -143.07932   0.61616721 
   10940    2983530.5    499.25565   -4.8458441     147.1946    142.19999    142.54075    4.8458441   0.61624587 
   10960    2984887.9    499.66641   -349.49808    147.20176    142.17181    142.62692    349.49808   0.61632453 
   10980    2983580.2    498.71467   -298.13864    147.20893    142.13412    142.59531    298.13864   0.61640319 
   11000      2982712    499.48047   -121.47397    147.21609    142.06816    142.61306    121.47397   0.61648185 
   11020    2982910.1    499.13082   -9.3298739    147.22325       142.07    142.61375    9.3298739   0.61656051 
   11040    2983892.7     499.2156   -237.90243    147.23042     142.1082    142.61543    237.90243   0.61663918 
   11060    2983587.1    499.19552   -162.64832    147.23758     142.0996    142.60252    162.64832   0.61671784 
   11080    2983403.3    499.75776   -232.17532    147.24475    142.08687    142.59957    232.17532    0.6167965 
   11100    2983755.4    500.09202    41.626103    147.25191    142.02875    142.66782   -41.626103   0.61687516 
   11120    2983328.1    499.41725    80.445749    147.25907    141.99071    142.67866   -80.445749   0.61695382 
   11140    2982456.3    499.27907    211.03593    147.26624    141.97586    142.64495   -211.03593   0.61703248 
   11160    2982825.4     499.9747   -111.74437     147.2734    141.94215    142.68954    111.74437   0.61711114 
   11180    2983896.6    500.27901   -258.34894    147.28056    141.93338    142.74266    258.34894    0.6171898 
   11200    2982862.7    499.60759   -175.03386    147.28773    141.94522    142.67436    175.03386   0.61726846 
   11220    2980999.4    499.99061    31.374672    147.29489    141.86992    142.65398   -31.374672   0.61734712 
   11240    2980510.9    500.45015    44.108838    147.30206    141.88323    142.61028   -44.108838   0.61742578 
   11260    2980737.3    500.80044   -23.606305    147.30922    141.88657    142.61082    23.606305   0.61750445 
   11280    2980826.8    500.45942     -182.652    147.31638    141.87634    142.61845      182.652   0.61758311 
   11300    2980673.1    500.96817    -254.6718    147.32355    141.89569    142.58472     254.6718   0.61766177 
   11320    2979893.5    500.15992   -13.202436    147.33071    141.88353     142.5527    13.202436   0.61774043 
   11340    2979413.3    500.39347    134.04341    147.33787     141.8434    142.56313   -134.04341   0.61781909 
   11360    2979585.3    500.73516   -60.651994    147.34504    141.83673    142.57113    60.651994   0.61789775 
   11380    2979164.6    502.24411    52.055771     147.3522    141.80764    142.57331   -52.055771   0.61797641 
   11400    2978879.4    500.33791   -2.4966123    147.35937    141.80732    142.55306    2.4966123   0.61805507 
   11420    2979476.5    500.65934    29.303477    147.36653    141.88437    142.49727   -29.303477   0.61813373 
   11440    2979425.4    500.84579    60.492419    147.37369    141.81138    142.56124   -60.492419   0.61821239 
   11460    2979736.6    500.04788   -214.58938    147.38086    141.78911    142.59159    214.58938   0.61829106 
   11480    2980026.9     500.8526   -529.59914    147.38802    141.74895    142.63896    529.59914   0.61836972 
   11500    2977891.9    499.25018   -144.43021    147.39518    141.68653    142.59262    144.43021   0.61844838 
   11520    2978100.8    500.36543   -153.06585    147.40235     141.7124    142.56967    153.06585   0.61852704 
   11540    2977755.6    498.36738    26.865245    147.40951    141.68716    142.57161   -26.865245    0.6186057 
   11560    2978918.7    499.04514   -148.49072    147.41668    141.70358    142.60384    148.49072   0.61868436 
   11580    2979241.6    500.38534    -135.9236    147.42384    141.70316    142.61278     135.9236   0.61876302 
   11600    2978412.3    498.80666   -264.86045      147.431    141.69793    142.57142    264.86045   0.61884168 
   11620    2978138.5    499.34188   -31.225176    147.43817    141.64669    142.60296    31.225176   0.61892034 
   11640    2977412.3    499.96378    108.40031    147.44533    141.64589    142.56207   -108.40031     0.618999 
   11660    2978630.6    499.59852   -149.14122     147.4525    141.67489    142.58427    149.14122   0.61907766 
   11680    2980373.6    499.35613   -292.41115    147.45966    141.75589    142.57927    292.41115   0.61915633 
   11700    2981712.4    499.70249   -342.34093    147.46682    141.76998     142.6222    342.34093   0.61923499 
   11720    2981557.8    500.01807   -179.42988    147.47399    141.74538    142.63263    179.42988   0.61931365 
   11740    2980119.2    500.19169    30.071166    147.48115    141.65817    142.64466   -30.071166   0.61939231 
   11760    2981747.3    500.62365   -288.23636    147.48831    141.73723    142.63605    288.23636   0.61947097 
   11780    2983793.7    499.77627    -414.7223    147.49548    141.75109    142.71305     414.7223   0.61954963 
   11800    2982690.6    499.81343   -229.08418    147.50264    141.73463    142.66992    229.08418   0.61962829 
   11820    2982363.3    500.69909    74.132658    147.50981    141.75659    142.62524   -74.132658   0.61970695 
   11840    2982397.8     498.7741   -189.72043    147.51697    141.77346      142.603    189.72043   0.61978561 
   11860    2984398.8     499.8087   -148.38574    147.52413    141.83935    142.62546    148.38574   0.61986427 
   11880    2985536.8    500.64255   -362.54365     147.5313    141.84841     142.6638    362.54365   0.61994293 
   11900      2984398    501.20266    36.155684    147.53846    141.78625    142.66497   -36.155684    0.6200216 
   11920    2984938.2    501.28636    289.70658    147.54562    141.79183    142.67826   -289.70658   0.62010026 
   11940    2986005.2    500.36685    70.815817    147.55279    141.79696    142.71716   -70.815817   0.62017892 
   11960      2986528    500.17629   -187.51583    147.55995    141.84633    142.68555    187.51583   0.62025758 
   11980    2986096.9    501.71646   -245.31966    147.56712    141.86359    142.64067    245.31966   0.62033624 
   12000    2985070.6    500.82842    -145.3955    147.57428    141.79566    142.65303     145.3955    0.6204149 
   12020    2985576.4    501.73192   -124.83355    147.58144    141.84978    142.61584    124.83355   0.62049356 
   12040    2984988.5    502.06553   -221.09554    147.58861    141.81567    142.61513    221.09554   0.62057222 
   12060    2984779.6     501.9438   -212.86063    147.59577     141.7968     142.6172    212.86063   0.62065088 
   12080    2983500.2    501.92007   -209.23408    147.60294    141.76076    142.58539    209.23408   0.62072954 
   12100    2983049.8    500.94962   -173.16787     147.6101    141.70133    142.61674    173.16787    0.6208082 
   12120    2982418.3     501.4577   -51.297313    147.61726    141.69317    142.58784    51.297313   0.62088687 
   12140    2981169.2    499.86706    106.76337    147.62443    141.67987    142.53458   -106.76337   0.62096553 
   12160    2981639.3    500.50893   -189.31434    147.63159     141.6946    142.53532    189.31434   0.62104419 
   12180    2982070.1    499.77088   -328.73019    147.63875    141.74001    142.50333    328.73019   0.62112285 
   12200    2982343.7    499.95043   -305.28089    147.64592    141.73849    142.51102    305.28089   0.62120151 
   12220      2982686    500.80714    -398.7228    147.65308    141.75287      142.506     398.7228   0.62128017 
   12240    2983012.5    499.71693   -200.92923    147.66025    141.77015    142.49731    200.92923   0.62135883 
   12260    2982707.3    501.49114   -126.99288    147.66741    141.73647    142.50968    126.99288   0.62143749 
   12280    2983673.4    500.40174   -89.159033    147.67457    141.73661    142.54879    89.159033   0.62151615 
   12300      2983162    500.88489    11.880988    147.68174    141.76975    142.48412   -11.880988   0.62159481 
   12320    2982386.3    501.04674    16.728354     147.6889    141.72565    142.48449   -16.728354   0.62167347 
   12340    2984422.2    499.50745     32.11459    147.69606    141.74092    142.55948    -32.11459   0.62175214 
   12360    2986291.4    498.98841   -335.62378    147.70323     141.7855    142.59699    335.62378    0.6218308 
   12380    2986232.4    497.95779   -369.48501    147.71039    141.75613    142.61681    369.48501   0.62190946 
   12400    2985548.7    499.89359     -239.009    147.71756    141.71464    142.61898      239.009   0.62198812 
   12420    2986911.2    499.59481    -206.0277    147.72472    141.76947    142.62197     206.0277   0.62206678 
   12440    2987770.9    498.80268   -87.622708    147.73188     141.7856    142.63987    87.622708   0.62214544 
   12460    2987224.6     499.7129   -345.08574    147.73905     141.7565    142.63615    345.08574    0.6222241 
   12480    2987296.5    499.21934   -293.28196    147.74621    141.77166    142.61741    293.28196   0.62230276 
   12500    2987602.3    498.95464   -243.87453    147.75337    141.76367    142.63314    243.87453   0.62238142 
   12520    2987632.4    499.12077   -30.495584    147.76054    141.77425    142.61701    30.495584   0.62246008 
   12540    2988247.9    498.92925   -102.29652     147.7677    141.75108    142.66279    102.29652   0.62253874 
   12560    2988283.7    500.45755   -78.117056    147.77487    141.78046    142.62802    78.117056   0.62261741 
   12580    2989466.7     499.7701    -107.8231    147.78203    141.81582      142.642     107.8231   0.62269607 
   12600    2988502.6    500.42467   -46.423732    147.78919    141.75434    142.65093    46.423732   0.62277473 
   12620    2988735.6    499.76023    10.947213    147.79636     141.7609    142.64853   -10.947213   0.62285339 
   12640      2990257    499.17806   -293.07266    147.80352    141.77692     142.6981    293.07266   0.62293205 
   12660    2990122.3    500.59397   -338.98251    147.81069    141.79947    142.66207    338.98251   0.62301071 
   12680    2990351.9    500.36394   -210.33077    147.81785     141.8193    142.64615    210.33077   0.62308937 
   12700    2990753.9    500.42492   -157.24579    147.82501     141.8384    142.63921    157.24579   0.62316803 
   12720    2989282.9    500.45302    176.55153    147.83218    141.78085    142.62001   -176.55153   0.62324669 
   12740    2988017.5     501.7326     190.5561    147.83934    141.76897    142.56468    -190.5561   0.62332535 
   12760    2988119.5    501.27829   -110.15929     147.8465    141.81626    142.51509    110.15929   0.62340401 
   12780    2989498.9    502.06443    -363.4269    147.85367    141.84037    142.54975     363.4269   0.62348268 
   12800    2988824.9    500.09026   -221.89034    147.86083    141.76898    142.58247    221.89034   0.62356134 
   12820    2988683.3    500.55605   -302.60633      147.868    141.78727    142.55041    302.60633      0.62364 
   12840    2988975.9    501.15043   -131.96423    147.87516     141.7798    142.56497    131.96423   0.62371866 
   12860      2989168    501.09603    -362.8731    147.88232      141.776    142.57104     362.8731   0.62379732 
   12880      2989081    501.00419   -139.76096    147.88949    141.73512    142.60111    139.76096   0.62387598 
   12900    2987416.3    500.28156   -12.784933    147.89665    141.66136    142.58899    12.784933   0.62395464 
   12920    2987997.8    500.54755   -79.941128    147.90381    141.68151    142.58956    79.941128    0.6240333 
   12940      2988416    500.46904   -322.22429    147.91098    141.64678    142.63757    322.22429   0.62411196 
   12960    2988292.6    499.98533   -410.29508    147.91814    141.70244    142.56875    410.29508   0.62419062 
   12980    2988350.1    500.09827   -329.95816    147.92531    141.64205    142.62538    329.95816   0.62426928 
   13000    2988599.9     500.3906   -394.13857    147.93247    141.64651    142.62589    394.13857   0.62434795 
   13020    2987837.5     498.8812   -94.580702    147.93963    141.67567    142.55326    94.580702   0.62442661 
[...]
  396760    3868417.8    500.56703    54.939928    285.39146    114.15153    118.74372   -54.939928    2.1336936 
  396780    3869325.9    501.08827   -48.550735    285.39863    114.15846     118.7614    48.550735    2.1337723 
  396800    3868412.3     501.3717   -108.15999    285.40579    114.14572    118.74363    108.15999     2.133851 
  396820    3869559.7    501.23414   -300.66543    285.41296    114.15203    118.76931    300.66543    2.1339296 
  396840    3870502.4     500.0629   -68.846277    285.42012    114.18216    118.76391    68.846277    2.1340083 
  396860    3870258.6    500.61744   -74.550335    285.42728    114.16075    118.77572    74.550335    2.1340869 
  396880    3869188.8    499.21881   -100.08272    285.43445    114.13399    118.76775    100.08272    2.1341656 
  396900    3871216.9    501.04478   -231.02435    285.44161     114.1506    118.80973    231.02435    2.1342443 
  396920    3874737.6    500.13721   -266.92882    285.44877    114.18228     118.8818    266.92882    2.1343229 
  396940    3872261.1    499.87513   -139.39542    285.45594    114.13172    118.85547    139.39542    2.1344016 
  396960    3871710.1    499.62335    92.822219     285.4631    114.11649    118.85144   -92.822219    2.1344802 
  396980    3875261.4    500.45929   -214.97067    285.47027    114.14313    118.92971    214.97067    2.1345589 
  397000      3877006     500.7422   -298.72616    285.47743    114.11794    119.00653    298.72616    2.1346376 
  397020    3875194.7     499.8405   -177.37928    285.48459    114.10035    118.96628    177.37928    2.1347162 
  397040    3875296.8    499.66644    20.692497    285.49176    114.08867    118.97861   -20.692497    2.1347949 
  397060    3877446.7    499.31196    30.276871    285.49892    114.08541    119.04503   -30.276871    2.1348735 
  397080    3879214.9    500.52134   -97.599414    285.50609    114.12959    119.05023    97.599414    2.1349522 
  397100    3879836.3    499.73222   -379.93907    285.51325     114.1443    119.05096    379.93907    2.1350309 
  397120    3880993.3    499.15714   -302.58679    285.52041    114.13503    119.09314    302.58679    2.1351095 
  397140    3882059.5    499.94413    -205.8932    285.52758    114.17028     119.0861     205.8932    2.1351882 
  397160    3880523.4    499.30823   -40.162506    285.53474    114.16513    119.04136    40.162506    2.1352668 
  397180    3881240.2     499.9323   -50.584536     285.5419    114.22119    119.00192    50.584536    2.1353455 
  397200    3882228.9    499.40339   -108.79227    285.54907    114.23124    119.01878    108.79227    2.1354242 
  397220    3883701.3    499.81722   -333.40243    285.55623    114.23377     119.0583    333.40243    2.1355028 
  397240    3883320.5     500.1379   -281.62954     285.5634    114.26776    119.00823    281.62954    2.1355815 
  397260    3883075.5    501.71946     16.36251    285.57056     114.2693    118.99613    -16.36251    2.1356602 
  397280    3882787.1    499.38028    62.238445    285.57772    114.30829    118.94373   -62.238445    2.1357388 
  397300    3881852.6    500.14148   -156.49676    285.58489    114.28031    118.94123    156.49676    2.1358175 
  397320    3882197.8    499.29536   -270.19798    285.59205    114.27102    118.95849    270.19798    2.1358961 
  397340    3883550.2    501.07599   -106.96477    285.59921    114.30824     118.9582    106.96477    2.1359748 
  397360    3883260.9    499.61122    39.944976    285.60638    114.28103    118.97467   -39.944976    2.1360535 
  397380    3882097.7    501.07248   -45.339387    285.61354    114.26959    118.94796    45.339387    2.1361321 
  397400    3884754.7    499.70806   -266.99878    285.62071    114.28495    119.01039    266.99878    2.1362108 
  397420    3886021.5    500.27382   -324.20332    285.62787    114.34221     118.9866    324.20332    2.1362894 
  397440    3885820.1    499.36982   -145.72209    285.63503    114.33989    118.97985    145.72209    2.1363681 
  397460      3885784    499.99131    20.883742     285.6422    114.37505    118.93919   -20.883742    2.1364468 
  397480    3887453.4    500.26587   -143.46838    285.64936      114.384      118.978    143.46838    2.1365254 
  397500    3887974.9    499.66026   -222.47154    285.65652    114.36084    119.01507    222.47154    2.1366041 
  397520    3887968.5    498.85544   -175.67973    285.66369    114.34187    119.03163    175.67973    2.1366827 
  397540    3888151.9    500.54825    4.5596317    285.67085    114.36416    119.01107   -4.5596317    2.1367614 
  397560    3886814.2    499.29634    383.01703    285.67802    114.31378    119.01957   -383.01703    2.1368401 
  397580    3888640.9    499.19411   -11.825603    285.68518    114.31643    119.06976    11.825603    2.1369187 
  397600    3893188.9    498.36223   -564.14473    285.69234    114.39572    119.12341    564.14473    2.1369974 
  397620    3892387.6    498.41933   -254.79216    285.69951    114.33553    119.15859    254.79216     2.137076 
  397640    3890959.2     499.7888   -111.65923    285.70667    114.30987    119.13862    111.65923    2.1371547 
  397660    3892434.4    499.97342    -269.6353    285.71384    114.30441     119.1865     269.6353    2.1372334 
  397680    3891471.9    498.51898   -156.05118      285.721    114.32789    119.12956    156.05118     2.137312 
  397700      3892459    499.31356   -203.36784    285.72816    114.33231    119.15219    203.36784    2.1373907 
  397720    3892215.9    499.71489   -113.87898    285.73533    114.30089    119.17451    113.87898    2.1374694 
  397740    3893478.5    498.97627   -217.18377    285.74249    114.33852    119.17095    217.18377     2.137548 
  397760    3894992.3    499.97628    -209.7923    285.74965    114.38832    119.16239     209.7923    2.1376267 
  397780    3892234.6    500.52817    9.4126248    285.75682    114.36187    119.10258   -9.4126248    2.1377053 
  397800      3892810    500.89397   -142.04231    285.76398    114.36516    119.11377    142.04231     2.137784 
  397820    3895644.6    500.41227   -386.88401    285.77115    114.39702    119.16432    386.88401    2.1378627 
  397840    3896172.3    500.66008    -253.6892    285.77831    114.40423    119.16997     253.6892    2.1379413 
  397860    3893189.4    500.67094    -115.3684    285.78547     114.3967    119.08358     115.3684      2.13802 
  397880    3892435.2    501.04838   -25.174175    285.79264    114.36458    119.09097    25.174175    2.1380986 
  397900    3893203.4    500.39328   -149.75387     285.7998    114.38473     119.0905    149.75387    2.1381773 
  397920    3894718.7    500.60438   -341.28788    285.80696    114.39135    119.12697    341.28788     2.138256 
  397940    3893240.8    501.48754   -203.66634    285.81413    114.39568    119.07428    203.66634    2.1383346 
  397960    3892336.8    500.17566   -69.511169    285.82129    114.40003    119.03912    69.511169    2.1384133 
  397980    3893356.6      500.376   -119.39768    285.82846    114.39319    119.07444    119.39768    2.1384919 
  398000    3894338.7    500.46712   -297.45226    285.83562     114.3786    119.11669    297.45226    2.1385706 
  398020    3892883.3    500.32877   -246.23008    285.84278    114.37665    119.07121    246.23008    2.1386493 
  398040    3891930.7    500.43995   -202.03102    285.84995    114.39738    119.01752    202.03102    2.1387279 
  398060    3891955.1    500.03435    -217.1463    285.85711    114.43302    118.97822     217.1463    2.1388066 
  398080      3892114    499.80783   -156.80718    285.86428     114.4149    118.99894    156.80718    2.1388853 
  398100    3891643.4    499.05528   -209.08378    285.87144    114.40851    118.98821    209.08378    2.1389639 
  398120    3891098.4    499.08722     -181.069     285.8786    114.38101    118.99718      181.069    2.1390426 
  398140    3889997.8    500.02789   -95.029993    285.88577    114.37003    118.97195    95.029993    2.1391212 
  398160    3890067.3    500.14281   -26.776918    285.89293     114.3763    118.96457    26.776918    2.1391999 
  398180      3891266    499.52368   -335.18973    285.90009    114.37021    119.00459    335.18973    2.1392786 
  398200    3890120.2    499.44979   -539.08988    285.90726    114.38439    118.95182    539.08988    2.1393572 
  398220    3890556.2    500.18093   -351.20848    285.91442     114.4029    118.94292    351.20848    2.1394359 
  398240    3888988.5    500.50218   -110.94868    285.92159    114.37993    118.91589    110.94868    2.1395145 
  398260    3887932.5    499.55972  0.033577792    285.92875    114.36977    118.89118 -0.033577792    2.1395932 
  398280      3889905    500.03495   -162.12439    285.93591    114.43215    118.88368    162.12439    2.1396719 
  398300    3891572.8    499.91852   -225.17428    285.94308    114.49655    118.86477    225.17428    2.1397505 
  398320    3892241.4    499.46533   -239.33994    285.95024    114.46784    118.91203    239.33994    2.1398292 
  398340    3890842.7    499.09473   -150.56404     285.9574    114.46003    118.87444    150.56404    2.1399078 
  398360    3889170.1    498.85891    9.2868274    285.96457    114.45566    118.82489   -9.2868274    2.1399865 
  398380      3889378    499.44831   -138.65959    285.97173    114.43098     118.8539    138.65959    2.1400652 
  398400    3889859.6    499.20821   -346.54692     285.9789    114.44505    118.85103    346.54692    2.1401438 
  398420    3890845.5    499.71233   -266.37198    285.98606    114.44019    118.88322    266.37198    2.1402225 
  398440    3891935.4     500.0753   -368.11954    285.99322    114.43003     118.9241    368.11954    2.1403011 
  398460    3890566.2    499.63552    -177.7918    286.00039    114.42811    118.88128     177.7918    2.1403798 
  398480    3889860.3    500.94105   -173.03446    286.00755    114.44559    118.83858    173.03446    2.1404585 
  398500    3890447.3    499.56937   -118.37648    286.01471    114.48713    118.81041    118.37648    2.1405371 
  398520    3891389.4    501.58938   -178.32303    286.02188    114.49023    118.83299    178.32303    2.1406158 
  398540    3889216.1     500.5663    22.657901    286.02904    114.46218    118.79275   -22.657901    2.1406945 
  398560    3889089.5    500.91684   -107.21849    286.03621    114.48318    118.76412    107.21849    2.1407731 
  398580    3890780.5    499.25238   -352.89191    286.04337    114.52379    118.77065    352.89191    2.1408518 
  398600    3890177.2    500.74624   -397.19831    286.05053    114.53263    118.74009    397.19831    2.1409304 
  398620    3890225.2    501.09253   -372.28825     286.0577    114.53847    118.73253    372.28825    2.1410091 
  398640    3890344.4    501.68916   -41.274591    286.06486    114.56253    118.70826    41.274591    2.1410878 
  398660    3891497.3    500.71697    109.65896    286.07203    114.60783    118.69353   -109.65896    2.1411664 
  398680    3891620.6    500.50323    -112.5973    286.07919    114.58384    118.71917     112.5973    2.1412451 
  398700    3891050.5    500.83755   -178.88146    286.08635    114.58221     118.7005    178.88146    2.1413237 
  398720    3889719.3     501.1457    -260.2839    286.09352    114.57847    118.66079     260.2839    2.1414024 
  398740    3889779.3    499.88201   -172.61421    286.10068    114.56149    118.67724    172.61421    2.1414811 
  398760    3888406.6    500.30977   -190.25301    286.10784    114.52615      118.669    190.25301    2.1415597 
  398780    3888057.2    499.39401   -109.59375    286.11501    114.50364    118.67868    109.59375    2.1416384 
  398800    3889513.8    499.92525   -222.25065    286.12217    114.50609    118.71764    222.25065     2.141717 
  398820      3889367    499.75841   -171.39216    286.12934    114.47966    118.73758    171.39216    2.1417957 
  398840    3889256.2    499.83961   -212.44059     286.1365    114.48439    118.72632    212.44059    2.1418744 
  398860    3888443.7    499.27691    -175.1796    286.14366    114.48555    118.69734     175.1796     2.141953 
  398880    3888622.5    498.84408   -128.76542    286.15083    114.45493    118.73159    128.76542    2.1420317 
  398900    3889575.2    498.86735    -132.2241    286.15799    114.47033    118.74173     132.2241    2.1421103 
  398920    3890550.5    499.29155    -273.0921    286.16515    114.46691    118.77207     273.0921     2.142189 
  398940    3890957.7    499.17721   -301.71868    286.17232    114.44491    118.80437    301.71868    2.1422677 
  398960    3890328.4    499.57181   -230.94823    286.17948    114.39957    118.82925    230.94823    2.1423463 
  398980    3890127.2    498.98458   -123.18326    286.18665    114.38486    118.83541    123.18326     2.142425 
  399000    3891097.8    498.89301    -150.8922    286.19381    114.40249    118.84377     150.8922    2.1425037 
  399020    3891255.4    499.96159   -284.68245    286.20097    114.39759    118.85071    284.68245    2.1425823 
  399040      3891137    499.99746   -188.68249    286.20814    114.35386    118.88956    188.68249     2.142661 
  399060    3889453.4    499.26812    130.57895     286.2153    114.30964    118.88111   -130.57895    2.1427396 
  399080    3890098.6    500.38654   -154.55046    286.22247    114.31028    118.89719    154.55046    2.1428183 
  399100    3890873.6    499.54585   -320.75441    286.22963    114.30993    118.91827    320.75441     2.142897 
  399120    3888901.1    499.81757   -372.15509    286.23679    114.24235    118.92532    372.15509    2.1429756 
  399140    3889454.9     499.8074   -180.96393    286.24396    114.20273    118.98054    180.96393    2.1430543 
  399160    3888545.6    500.04918   -162.76116    286.25112    114.17897     118.9745    162.76116    2.1431329 
  399180    3888418.4    500.47531   -108.74037    286.25828    114.15424     118.9934    108.74037    2.1432116 
  399200    3889474.9    501.53158   -265.13759    286.26545    114.13587    119.04191    265.13759    2.1432903 
  399220    3889504.6    502.18851   -436.05651    286.27261    114.13313     119.0427    436.05651    2.1433689 
  399240    3889019.1    501.34382   -163.60604    286.27978    114.15465    119.00242    163.60604    2.1434476 
  399260    3887971.6     501.6765   -135.32861    286.28694    114.11857    119.00501    135.32861    2.1435262 
  399280    3887131.3    501.61137    -184.0207     286.2941    114.10029    118.99537     184.0207    2.1436049 
  399300    3888068.8    502.84554   -267.21934    286.30127    114.09926    119.02217    267.21934    2.1436836 
  399320    3889725.9    502.12329   -403.96093    286.30843    114.10649    119.06237    403.96093    2.1437622 
  399340    3889786.1    502.79471    -131.9321    286.31559    114.07479    119.09432     131.9321    2.1438409 
  399360    3888543.5    501.31978   -7.3989891    286.32276    114.04164     119.0879    7.3989891    2.1439195 
  399380    3889976.4    502.26714    -126.6607    286.32992    114.07958    119.08919     126.6607    2.1439982 
  399400    3891296.7    500.90064   -503.92743    286.33709    114.13007    119.07392    503.92743    2.1440769 
  399420    3890982.8    500.50827   -298.73088    286.34425    114.13566    119.05551    298.73088    2.1441555 
  399440      3889560    499.67076   -127.85125    286.35141    114.09852    119.04773    127.85125    2.1442342 
  399460    3888770.2      500.811   -97.794796    286.35858    114.04185    119.07973    97.794796    2.1443129 
  399480    3890541.8    500.74702   -224.25675    286.36574    114.07422    119.09719    224.25675    2.1443915 
  399500      3891239    499.99224   -458.66292     286.3729    114.07843    119.11116    458.66292    2.1444702 
  399520    3890121.8    499.46353   -232.99802    286.38007    114.04648    119.10734    232.99802    2.1445488 
  399540    3889533.4     500.9223   -268.71135    286.38723    114.05412    119.07837    268.71135    2.1446275 
  399560    3889017.9    498.73915   -24.411195     286.3944     114.0447    119.06944    24.411195    2.1447062 
  399580    3888693.1    501.70388     118.2476    286.40156    114.02801    119.07395    -118.2476    2.1447848 
  399600    3888443.4    499.45858   -165.03815    286.40872    114.00696     119.0853    165.03815    2.1448635 
  399620    3889600.3    499.60685   -211.59857    286.41589    114.04573    119.07726    211.59857    2.1449421 
  399640    3889356.3    500.00999   -91.593293    286.42305    114.04127    119.07147    91.593293    2.1450208 
  399660    3888195.9     498.3721   -52.302273    286.43022    114.03788    119.03651    52.302273    2.1450995 
  399680    3888817.9    498.64942   -181.37355    286.43738    114.07654    119.01223    181.37355    2.1451781 
  399700    3890063.3    499.02719   -426.28618    286.44454    114.06729    119.05702    426.28618    2.1452568 
  399720    3891354.2    498.28835   -332.59215    286.45171    114.08356    119.07656    332.59215    2.1453354 
  399740      3889413    500.46552   -143.45763    286.45887    114.10462    118.99222    143.45763    2.1454141 
  399760      3887898    498.67504    157.86828    286.46603    114.05967    118.98976   -157.86828    2.1454928 
  399780    3888148.8    499.38684    109.11322     286.4732     114.0627    118.99131   -109.11322    2.1455714 
  399800    3887685.1    499.91786   -146.76842    286.48036    114.05665    118.98045    146.76842    2.1456501 
  399820    3887416.5    500.61445   -287.87327    286.48753    114.07096    118.95433    287.87327    2.1457288 
  399840      3887341    501.51155   -253.88496    286.49469    114.03158    118.99013    253.88496    2.1458074 
  399860    3886320.3    499.81722   -11.815608    286.50185    114.00762    118.98091    11.815608    2.1458861 
  399880    3886346.4    500.57132   -94.977193    286.50902     114.0471    118.93754    94.977193    2.1459647 
  399900      3888757    501.02177   -122.61351    286.51618    114.06803     118.9865    122.61351    2.1460434 
  399920    3887960.7    500.13201    -151.5699    286.52334     114.0528    118.97505     151.5699    2.1461221 
  399940    3887234.4      501.252   -259.49328    286.53051    114.01049    118.99399    259.49328    2.1462007 
  399960    3887945.3    501.28506   -125.31329    286.53767    114.00497    119.01854    125.31329    2.1462794 
  399980    3887171.9    501.79926   -36.781424    286.54484    113.96423    119.03443    36.781424     2.146358 
  400000    3889107.8    499.98053   -188.33289      286.552    113.99595     119.0576    188.33289    2.1464367 
Loop time of 60525.7 on 64 procs for 400000 steps with 212040 atoms

Performance: 0.571 ns/day, 42.032 hours/ns, 6.609 timesteps/s
99.8% CPU use with 64 MPI tasks x 1 OpenMP threads

MPI task timing breakdown:
Section |  min time  |  avg time  |  max time  |%varavg| %total
---------------------------------------------------------------
Pair    | 9190.6     | 17461      | 23449      |2277.2 | 28.85
Bond    | 970.97     | 1581.5     | 1887.8     | 469.1 |  2.61
Kspace  | 2214.9     | 8448.6     | 17295      |3474.0 | 13.96
Neigh   | 31432      | 31566      | 31644      |  36.3 | 52.15
Comm    | 931.73     | 1033.8     | 1204.6     | 227.1 |  1.71
Output  | 7.5359     | 7.7805     | 8.0379     |   3.6 |  0.01
Modify  | 337.93     | 384.67     | 421.75     |  81.3 |  0.64
Other   |            | 41.67      |            |       |  0.07

Nlocal:        3313.12 ave        4410 max         740 min
Histogram: 2 0 2 2 8 13 3 5 5 24
Nghost:        17799.2 ave       22891 max       12139 min
Histogram: 8 15 6 2 1 0 1 5 12 14
Neighs:    1.79686e+06 ave 2.76131e+06 max      292214 min
Histogram: 2 1 5 14 6 6 1 5 13 11

Total # of neighbors = 1.1499884e+08
Ave neighs/atom = 542.34504
Ave special neighs/atom = 5.9990568
Neighbor list builds = 400000
Dangerous builds not checked
Total wall time: 16:48:50
