LAMMPS (29 Oct 2020)
OMP_NUM_THREADS environment is not set. Defaulting to 1 thread. (../comm.cpp:94)
  using 1 OpenMP thread(s) per MPI task
####################################################
#    This program is free software: you can redistribute it and/or modify
#    it under the terms of the GNU General Public License as published by
#    the Free Software Foundation, either version 3 of the License, or
#    (at your option) any later version.
#
#    This program is distributed in the hope that it will be useful,
#    but WITHOUT ANY WARRANTY; without even the implied warranty of
#    MERCHANTABILITY or FITNESS FOR A PARTICULAR PURPOSE.  See the
#    GNU General Public License for more details.


units		real        ## defines the units style used herein. More information: https://docs.lammps.org/units.html
atom_style	full        ## defines the atom style used herein. More information: https://docs.lammps.org/atom_style.html

# Styles
pair_style      lj/cut/coul/long 15.0 10.0      ## sets the formula(s) LAMMPS uses to compute pairwise interactions; here, lennard-jones (LJ) with long-range Coulomb interaction. More: https://docs.lammps.org/pair_lj_cut_coul.html
pair_modify     shift no                        ## the shift keyword determines whether a Lennard-Jones potential is shifted at its cutoff to 0.0. More: https://docs.lammps.org/pair_modify.html
kspace_style    pppm 1.0e-4                     ## defines a long-range solver for LAMMPS to compute long-range Coulombic interactions. Note: requires use of a matching pair style, i.e. PPPM with coul/long. More: https://docs.lammps.org/kspace_style.html
bond_style      harmonic                        ## defined based off the forcefield used to construct the system; models the atoms' interactions
angle_style     harmonic
dihedral_style  opls
improper_style  cvff
special_bonds   lj 0 0 1 coul 0 0 1

read_data       500K_TRP.lmps      ## input lammps datafile, equilibriated until structure nears experimental properties
Reading data file ...
  orthogonal box = (228.36200 228.36200 228.36200) to (371.63800 371.63800 371.63800)
  4 by 4 by 4 MPI processor grid
  reading atoms ...
  212040 atoms
  reading velocities ...
  212040 velocities
  scanning bonds ...
  2 = max bonds/atom
  scanning angles ...
  6 = max angles/atom
  scanning dihedrals ...
  15 = max dihedrals/atom
  scanning impropers ...
  2 = max impropers/atom
  reading bonds ...
  236020 bonds
  reading angles ...
  399920 angles
  reading dihedrals ...
  615800 dihedrals
  reading impropers ...
  127960 impropers
Finding 1-2 1-3 1-4 neighbors ...
  special bond factors lj:    0.0      0.0      1.0     
  special bond factors coul:  0.0      0.0      1.0     
     4 = max # of 1-2 neighbors
    10 = max # of 1-3 neighbors
    14 = max # of special neighbors
  special bonds CPU = 1.522 seconds
  read_data CPU = 3.571 seconds

dielectric      1.0
neighbor    	1.0 bin
neigh_modify	delay 0 every 1 check no        ## this is to make sure that the neighbor list is updated every timestep, and the atoms don't get lost as the system is being deformed ##

timestep	    1.0                             ## unit = fs, per "real" unit style
run_style       verlet                          ## defines algorithm used for simulation computation; verlet integration is a numerical method used to integrate Newton's equations of motion.

variable stress equal press*-1                         ## computes stress as the negative of press values
variable engStrain equal (lx-91.07191)/91.07191      ## computes engineering strain; lx_0 must be found and inputted manually (for now)

thermo		    20                                                               ## output log data (headers in thermo_style), recorded at every timestep in numList.txt
thermo_style    custom step vol temp press lx ly lz v_stress v_engStrain         ## data headers of output log file. More: https://docs.lammps.org/thermo_style.html

################# Deformation ##################

fix 1 all npt temp 500 500 100 y 1 1 100.0 z 1 1 100.0      ## stress normal to the x direction can vary; external pressure (y and z) = 1atm ##

fix 2 all deform 1 x scale 2.0 remap x                      ## sets a uniaxial (x-direction) deformation in motion, scaling a set amount (here, 4.0x) the initial length


################# Dumping ##################

reset_timestep 0

dump dump2 all custom 4000 sim.lammpstrj id mol type q xs ys zs ix iy iz

restart 8000 PMP.restart

run 		80000              ## this depends on the overall strain rate, where strain rate = deformScale / runTimeSteps (consider units!)
PPPM initialization ...
WARNING: System is not charge neutral, net charge = 0.034008 (../kspace.cpp:313)
  using 12-bit tables for long-range coulomb (../kspace.cpp:328)
  G vector (1/distance) = 0.2076702
  grid = 40 40 40
  stencil order = 5
  estimated absolute RMS force accuracy = 0.028649168
  estimated relative force accuracy = 8.6276118e-05
  using double precision FFTW3
  3d grid and FFT values/proc = 3375 1000
Neighbor list info ...
  update every 1 steps, delay 0 steps, check no
  max neighbors/atom: 2000, page size: 100000
  master list distance cutoff = 16
  ghost atom cutoff = 16
  binsize = 8, bins = 18 18 18
  1 neighbor lists, perpetual/occasional/extra = 1 0 0
  (1) pair lj/cut/coul/long, perpetual
      attributes: half, newton on
      pair build: half/bin/newton
      stencil: half/bin/3d/newton
      bin: standard
Per MPI rank memory allocation (min/avg/max) = 37.37 | 39.09 | 39.74 Mbytes
Step Volume Temp Press Lx Ly Lz v_stress v_engStrain 
       0    2941171.5    500.13023    13851.199      143.276      143.276      143.276   -13851.199   0.57321835 
      20    2962769.9    509.51676    1592.0103    143.31182    143.80755    143.75872   -1592.0103   0.57361165 
      40    2983268.2    505.46869    1085.9645    143.34764    144.28925    144.23405   -1085.9645   0.57400496 
      60    2979194.8    507.67636    119.67487    143.38346    144.18158    144.10866   -119.67487   0.57439826 
      80      2973858    505.96464   -277.23408    143.41928    144.02203     143.9739    277.23408   0.57479157 
     100    2973284.5    506.10142   -494.52541    143.45509    143.95067    143.98154    494.52541   0.57518487 
     120    2971381.5    504.43716    -1146.535    143.49091    143.86737    143.93676     1146.535   0.57557818 
     140    2966229.3    504.05236   -1042.9798    143.52673    143.72807    143.79055    1042.9798   0.57597148 
     160      2960139    503.67845   -795.35176    143.56255    143.58079    143.60667    795.35176   0.57636479 
     180    2961567.2    505.37341   -1113.1372    143.59837    143.59491    143.62599    1113.1372   0.57675809 
     200    2957535.1    504.19497   -45.014753    143.63419    143.46202    143.52751    45.014753    0.5771514 
     220    2959145.8    503.33389   -210.28182    143.67001    143.48195    143.54993    210.28182    0.5775447 
     240    2959627.6    502.85051    524.81107    143.70583    143.46438     143.5551   -524.81107     0.577938 
     260    2954521.4    501.40483    1164.5724    143.74165    143.28779    143.44828   -1164.5724   0.57833131 
     280    2956822.2    501.18293    802.33469    143.77747    143.26254    143.54952   -802.33469   0.57872461 
     300    2957620.2    502.52612   -424.76105    143.81328      143.226    143.58912    424.76105   0.57911792 
     320    2956454.5    503.81241    526.03508     143.8491    143.15654    143.56642   -526.03508   0.57951122 
     340    2958072.3     500.5227   -903.55217    143.88492    143.17486    143.59083    903.55217   0.57990453 
     360    2956775.8    500.68562   -482.84893    143.92074    143.10638    143.56085    482.84893   0.58029783 
     380    2957551.1    500.76343    22.623245    143.95656    143.10236    143.56679   -22.623245   0.58069114 
     400    2958314.8    499.95569    -248.4379    143.99238    143.06427    143.60637     248.4379   0.58108444 
     420      2959349    499.26082   -325.23172     144.0282    143.09136    143.59366    325.23172   0.58147775 
     440    2958022.1    500.94416    329.02217    144.06402    143.02807    143.55708   -329.02217   0.58187105 
     460    2958719.5    499.92945   -57.831731    144.09984    142.98468     143.5988    57.831731   0.58226435 
     480    2958443.6    499.28737    262.80587    144.13566    142.94949    143.58506   -262.80587   0.58265766 
     500    2958299.5     498.7939    488.48372    144.17147     142.9393    143.55263   -488.48372   0.58305096 
     520    2959013.3    499.45964    383.23209    144.20729    142.95145     143.5394   -383.23209   0.58344427 
     540    2962606.5    499.68954   -141.01072    144.24311    142.97369    143.65567    141.01072   0.58383757 
     560    2964811.1    498.84027   -417.74269    144.27893     143.0166    143.68376    417.74269   0.58423088 
     580      2963026    499.44077   -148.52999    144.31475    142.93542    143.64314    148.52999   0.58462418 
     600    2963927.6    499.20788   -332.03516    144.35057    142.95899     143.6275    332.03516   0.58501749 
     620    2965266.2      498.389     -436.179    144.38639    142.95379    143.66195      436.179   0.58541079 
     640    2963528.2    500.12304     150.6222    144.42221    142.86502    143.63133    -150.6222    0.5858041 
     660    2963808.1    499.41219   -70.158878    144.45803     142.8663    143.60799    70.158878    0.5861974 
     680    2963080.1     499.3285    233.21389    144.49385    142.84089    143.56266   -233.21389   0.58659071 
     700      2965029    499.13805   -272.38131    144.52966    142.88435     143.5778    272.38131   0.58698401 
     720    2964270.8    500.32473   -39.265683    144.56548    142.84608    143.54396    39.265683   0.58737731 
     740    2963235.4    500.58691    -119.1597     144.6013     142.7996    143.50497     119.1597   0.58777062 
     760    2963914.8    501.13471    231.25921    144.63712    142.78091    143.52112   -231.25921   0.58816392 
     780    2964758.4    500.21208   -235.81996    144.67294    142.77225    143.53512    235.81996   0.58855723 
     800    2965209.1    500.06043   -62.899752    144.70876    142.76578    143.52792    62.899752   0.58895053 
     820    2965476.2    502.13133   -453.95072    144.74458     142.7898    143.48118    453.95072   0.58934384 
     840    2965260.2    499.95482   -615.13718     144.7804    142.78399    143.44108    615.13718   0.58973714 
     860    2964960.2    500.81573   -216.54827    144.81622    142.77713    143.39797    216.54827   0.59013045 
     880    2963136.8    499.89334   -15.837352    144.85204    142.72147    143.33022    15.837352   0.59052375 
     900      2963269    501.38133    63.435954    144.88785    142.71769    143.30498   -63.435954   0.59091706 
     920    2965359.4    500.15165   -248.32903    144.92367    142.75256     143.3356    248.32903   0.59131036 
     940    2965516.4    501.19619   -127.13115    144.95949    142.73371    143.32671    127.13115   0.59170366 
     960    2966357.3    500.03102    -30.99569    144.99531    142.72175    143.34394     30.99569   0.59209697 
     980      2966585    502.08591    88.721808    145.03113    142.73696    143.30426   -88.721808   0.59249027 
    1000    2967201.5    500.79944    141.94847    145.06695    142.69369     143.3421   -141.94847   0.59288358 
    1020    2970219.7    499.02578   -243.60844    145.10277    142.75018    143.39573    243.60844   0.59327688 
    1040    2970019.1    498.18913   -280.98942    145.13859    142.70503    143.39601    280.98942   0.59367019 
    1060    2971353.4     498.7695   -295.90597    145.17441    142.69261    143.43752    295.90597   0.59406349 
    1080      2972104     498.6176   -16.881838    145.21023    142.68398    143.44704    16.881838    0.5944568 
    1100    2972337.6    498.53835      114.883    145.24604    142.68173     143.4252     -114.883    0.5948501 
    1120    2973036.4    500.33803    113.51056    145.28186    142.69238    143.41285   -113.51056   0.59524341 
    1140    2973972.4    500.07391     -431.863    145.31768    142.70147     143.4135      431.863   0.59563671 
    1160    2973973.4    498.93342   -336.33203     145.3535    142.70152    143.37815    336.33203   0.59603002 
    1180    2972639.8    498.75937   -97.909932    145.38932    142.62759    143.35282    97.909932   0.59642332 
    1200    2973002.6    499.37475    -107.1013    145.42514    142.61695    143.34569     107.1013   0.59681662 
    1220    2973308.6    499.38892   -164.94395    145.46096    142.63835    143.30364    164.94395   0.59720993 
    1240    2974379.3    499.33691   -421.96627    145.49678    142.64515    143.31313    421.96627   0.59760323 
    1260    2973209.3    500.58386   -215.30444     145.5326    142.60457    143.26225    215.30444   0.59799654 
    1280    2972182.3    500.66316     133.6008    145.56842    142.61177    143.17029    -133.6008   0.59838984 
    1300    2972908.6    500.32976    20.862315    145.60423    142.63196    143.14978   -20.862315   0.59878315 
    1320    2973373.4    500.55989    30.437817    145.64005    142.63621    143.13269   -30.437817   0.59917645 
    1340    2972596.4     501.0089    -105.5897    145.67587    142.62472    143.07162     105.5897   0.59956976 
    1360    2972189.9     500.3911   -184.43962    145.71169    142.54929    143.09257    184.43962   0.59996306 
    1380    2972697.2    499.51188   -325.23902    145.74751    142.59025    143.04072    325.23902   0.60035637 
    1400    2971350.2    501.04181   -44.048094    145.78333    142.59375    142.93727    44.048094   0.60074967 
    1420    2970656.6    501.55302   -290.14733    145.81915    142.59235     142.8702    290.14733   0.60114298 
    1440    2970633.6    501.65917   -275.94737    145.85497    142.54256     142.8839    275.94737   0.60153628 
    1460    2971721.5    499.46807   -238.59403    145.89079    142.54938     142.8943    238.59403   0.60192958 
    1480    2972938.9    500.36447   -105.25168    145.92661    142.51775    142.94947    105.25168   0.60232289 
    1500    2972916.1    501.10887   -26.762397    145.96242    142.47683    142.95433    26.762397   0.60271619 
    1520    2972691.1    500.51527    88.393635    145.99824     142.4578    142.92754   -88.393635    0.6031095 
    1540    2974696.8    499.36386    253.34916    146.03406    142.56027    142.88611   -253.34916    0.6035028 
    1560    2974729.1    501.00606    43.917167    146.06988    142.55687    142.85603   -43.917167   0.60389611 
    1580    2974135.7    500.04988   -225.73249     146.1057    142.50089    142.84861    225.73249   0.60428941 
    1600    2974600.1     499.6922   -297.14989    146.14152    142.52521    142.81153    297.14989   0.60468272 
    1620    2975412.4    499.86142    -436.6752    146.17734    142.52204    142.81871     436.6752   0.60507602 
    1640    2976163.3    499.16398   -174.52868    146.21316    142.55325    142.78849    174.52868   0.60546933 
    1660      2976049    500.00752   -344.69979    146.24898    142.50045    142.80092    344.69979   0.60586263 
    1680    2976820.7     499.8918   -307.34042     146.2848     142.4964    142.80703    307.34042   0.60625593 
    1700    2976819.1    498.85682    -286.3071    146.32061    142.49997    142.76842     286.3071   0.60664924 
    1720    2975545.5     499.3035    25.620199    146.35643    142.49047    142.68192   -25.620199   0.60704254 
    1740    2974453.2    499.47629    56.979396    146.39225    142.43376    142.65143   -56.979396   0.60743585 
    1760    2974606.4     499.6359    7.4883465    146.42807    142.42721    142.63044   -7.4883465   0.60782915 
    1780      2976659    499.81092   -237.34728    146.46389    142.43818    142.68296    237.34728   0.60822246 
    1800    2977878.9    500.79223   -323.52483    146.49971    142.42731    142.71742    323.52483   0.60861576 
    1820    2978811.9    500.04364   -14.605426    146.53553    142.41117    142.74341    14.605426   0.60900907 
    1840    2978799.4    499.25456   -41.594287    146.57135    142.36879    142.75042    41.594287   0.60940237 
    1860    2978572.6    500.84346   -136.06245    146.60717    142.33426    142.73929    136.06245   0.60979568 
    1880    2979997.5    499.31429   -491.70248    146.64299    142.31143     142.7956    491.70248   0.61018898 
    1900    2980230.4    500.39144   -505.29381     146.6788    142.31119    142.77213    505.29381   0.61058229 
    1920      2979001     501.0289   -99.584975    146.71462    142.27771    142.71196    99.584975   0.61097559 
    1940    2980839.4    500.96746   -176.72553    146.75044     142.2769    142.76598    176.72553   0.61136889 
    1960    2981304.3     501.2929    -222.1732    146.78626    142.26966    142.76068     222.1732    0.6117622 
    1980      2982059    500.37744   -294.04616    146.82208    142.30532    142.72621    294.04616    0.6121555 
    2000    2981650.6    502.28548    32.727699     146.8579    142.30195    142.67523   -32.727699   0.61254881 
    2020    2982578.7    502.09585   -267.56094    146.89372    142.30374    142.68305    267.56094   0.61294211 
    2040    2982280.3     501.8407   -303.11372    146.92954    142.27098    142.66684    303.11372   0.61333542 
    2060    2982575.2    502.41111   -275.08621    146.96536    142.25812    142.65906    275.08621   0.61372872 
    2080    2983296.6    501.53489   -226.56569    147.00118    142.22915    142.68785    226.56569   0.61412203 
    2100    2982929.2    501.70268    2.3454585    147.03699    142.26186    142.60273   -2.3454585   0.61451533 
    2120    2983442.4    501.25643    19.711807    147.07281    142.27429    142.58007   -19.711807   0.61490864 
    2140    2984483.3    499.69797   -207.94257    147.10863    142.26002     142.6094    207.94257   0.61530194 
    2160    2986077.8    499.22334   -394.94206    147.14445    142.30811    142.60264    394.94206   0.61569524 
    2180    2984570.3    499.88637   -11.490864    147.18027    142.27731    142.52681    11.490864   0.61608855 
    2200    2984615.8    500.84317   -171.88972    147.21609    142.28754    142.48406    171.88972   0.61648185 
    2220    2984415.4    500.89105   -221.49462    147.25191    142.26183    142.46558    221.49462   0.61687516 
    2240    2985650.7    499.61663   -233.23101    147.28773    142.26634    142.48537    233.23101   0.61726846 
    2260    2985209.8    500.54118   -216.06278    147.32355    142.28209    142.41392    216.06278   0.61766177 
    2280    2985020.1    499.86941   -193.21008    147.35937    142.24595    142.40644    193.21008   0.61805507 
    2300    2985154.9    500.38809   -73.004799    147.39518    142.26175    142.36244    73.004799   0.61844838 
    2320    2985479.5     499.9538   -279.28526      147.431    142.24556    142.35953    279.28526   0.61884168 
    2340    2987043.3    499.42503   -505.90015    147.46682    142.25801    142.38704    505.90015   0.61923499 
    2360    2985295.2    499.70196   -173.54964    147.50264    142.22547    142.30171    173.54964   0.61962829 
    2380    2986175.4    500.37614   -141.97562    147.53846    142.18421     142.3504    141.97562    0.6200216 
    2400    2986099.8    499.54588   -126.17938    147.57428    142.13896    142.35755    126.17938    0.6204149 
    2420    2985931.8    499.52164   -208.28075     147.6101    142.09726    142.35676    208.28075    0.6208082 
    2440    2985595.1    498.75846   -128.18835    147.64592    142.10264    142.30079    128.18835   0.62120151 
    2460    2986497.8    500.47697   -203.17987    147.68174     142.0953    142.31665    203.17987   0.62159481 
    2480    2985929.6    499.58946   -20.560687    147.71756    142.05589    142.29453    20.560687   0.62198812 
    2500    2985886.8    499.42228   -2.9907182    147.75337    142.06422    142.24966    2.9907182   0.62238142 
    2520    2986913.9    500.01432   -163.42708    147.78919     142.0994    142.22888    163.42708   0.62277473 
    2540    2987084.7    498.82302   -309.77909    147.82501    142.01189    142.29017    309.77909   0.62316803 
    2560      2986097    500.02253   -174.09891    147.86083    141.94679    142.27388    174.09891   0.62356134 
    2580    2985043.4     498.8961   -65.855374    147.89665    141.92506    142.21101    65.855374   0.62395464 
    2600      2987179    499.25919   -455.00641    147.93247    141.94278    142.26053    455.00641   0.62434795 
    2620    2987250.4    500.84772   -329.45529    147.96829     141.8837    142.28872    329.45529   0.62474125 
    2640    2986916.2    499.71173    -198.9985    148.00411    141.82629    142.29594     198.9985   0.62513455 
    2660    2986540.5    499.48437   -90.490377    148.03993     141.8096    142.26036    90.490377   0.62552786 
    2680      2987670    499.79331   -52.009216    148.07575    141.82865    142.26063    52.009216   0.62592116 
    2700    2987607.9    500.02355   -258.41447    148.11156    141.83198    142.21992    258.41447   0.62631447 
    2720    2987513.2    501.46213   -40.756405    148.14738    141.78966    142.22348    40.756405   0.62670777 
    2740      2988616    500.92642   -255.09732     148.1832    141.78922    142.24203    255.09732   0.62710108 
    2760    2990493.6    500.65998   -343.24286    148.21902    141.79341    142.29279    343.24286   0.62749438 
    2780    2989453.6     501.7492   -81.092903    148.25484    141.78689    142.21548    81.092903   0.62788769 
    2800    2989678.8    501.32044   -208.86179    148.29066    141.75939    142.21942    208.86179   0.62828099 
    2820    2990329.1    500.17393   -255.20974    148.32648    141.75004    142.22538    255.20974    0.6286743 
    2840    2991031.7    500.71521   -228.81576     148.3623    141.72437    142.25022    228.81576    0.6290676 
    2860    2992964.1    500.11848   -454.72971    148.39812    141.80181    142.23004    454.72971   0.62946091 
    2880    2990054.7    500.66318    -276.3054    148.43394    141.67235    142.18731     276.3054   0.62985421 
    2900    2990550.6    500.07672    -60.14159    148.46975    141.66724    142.18171     60.14159   0.63024751 
    2920    2990726.5    499.94918   -137.56368    148.50557    141.68136    142.14161    137.56368   0.63064082 
    2940    2991539.7    499.86508   -70.296107    148.54139    141.65275    142.17468    70.296107   0.63103412 
    2960    2992124.1    500.99245   -60.024253    148.57721    141.64055    142.18042    60.024253   0.63142743 
    2980    2993359.1    499.26425   -345.94104    148.61303     141.6282    142.21723    345.94104   0.63182073 
    3000    2994978.7    499.58151    -279.6687    148.64885    141.66688    142.22104     279.6687   0.63221404 
    3020    2994187.6    499.78223   -325.88323    148.68467    141.62952    142.18672    325.88323   0.63260734 
    3040    2994319.4    499.54676   -215.91434    148.72049    141.60481    142.18354    215.91434   0.63300065 
    3060    2994909.4     499.4714   -335.16258    148.75631    141.63528    142.14673    335.16258   0.63339395 
    3080    2995286.3    499.96017   -422.62729    148.79213    141.67747    142.08807    422.62729   0.63378726 
    3100    2994497.8    498.85272   -267.24213    148.82794    141.57352    142.12075    267.24213   0.63418056 
    3120    2994991.1    500.22613   -79.865627    148.86376    141.59127    142.09214    79.865627   0.63457386 
    3140    2994231.1    500.51023    168.34712    148.89958     141.5576     142.0557   -168.34712   0.63496717 
    3160    2994968.6    500.69836   -40.660879     148.9354    141.53421    142.07999    40.660879   0.63536047 
    3180    2995183.6    499.55631   -32.873021    148.97122    141.53463     142.0556    32.873021   0.63575378 
    3200    2997114.3     500.4823    -390.2399    149.00704    141.54614    142.10144     390.2399   0.63614708 
    3220    2995598.5    500.45123   -163.79016    149.04286    141.48897    142.05282    163.79016   0.63654039 
    3240    2993866.6    500.58266    11.855593    149.07868    141.38529    142.04066   -11.855593   0.63693369 
    3260    2994728.9    498.89464   -290.47084     149.1145    141.40803     142.0246    290.47084     0.637327 
    3280      2995409    499.83938   -379.97024    149.15032    141.40543    142.02535    379.97024    0.6377203 
    3300    2994889.3    500.60408   -421.89247    149.18613    141.36263    142.00959    421.89247   0.63811361 
    3320      2994237    501.22348   -307.56516    149.22195    141.34218    141.96512    307.56516   0.63850691 
    3340    2994873.4    500.06979   -214.67721    149.25777    141.37099    141.93229    214.67721   0.63890022 
    3360    2992812.7    502.81758    134.55724    149.29359    141.23463    141.93751   -134.55724   0.63929352 
    3380    2992529.8     502.4352   -127.88603    149.32941    141.23714    141.88753    127.88603   0.63968682 
    3400      2993391    501.99244   -281.87421    149.36523    141.23438     141.8971    281.87421   0.64008013 
    3420    2994085.3    502.25018   -290.59732    149.40105     141.2346    141.89576    290.59732   0.64047343 
    3440    2993406.8    502.71303   -300.42109    149.43687    141.16378    141.90076    300.42109   0.64086674 
    3460    2993959.6    501.95509   -242.61173    149.47269    141.19646    141.86011    242.61173   0.64126004 
    3480    2993713.2    501.16996   -392.48879    149.50851    141.18163    141.82935    392.48879   0.64165335 
    3500    2994568.5    500.87833   -124.62167    149.54432    141.14446    141.87324    124.62167   0.64204665 
    3520    2995544.2    500.56386   -128.23294    149.58014    141.16405    141.86579    128.23294   0.64243996 
    3540    2994118.5    501.00781   0.66005985    149.61596    141.07961    141.84918  -0.66005985   0.64283326 
    3560      2996339     500.0878   -165.18192    149.65178    141.13341    141.86629    165.18192   0.64322657 
    3580    2997389.2    500.89345   -255.12256     149.6876     141.1386    141.87683    255.12256   0.64361987 
    3600    2998668.2     500.6114   -305.73474    149.72342    141.18768    141.85409    305.73474   0.64401318 
    3620    2998224.3    501.13067   -74.008441    149.75924     141.1594    141.82758    74.008441   0.64440648 
    3640    2998297.7    499.65004   -212.77618    149.79506    141.12152     141.8352    212.77618   0.64479978 
    3660    2999692.7    499.58462   -142.16791    149.83088    141.12157    141.86721    142.16791   0.64519309 
    3680    3000088.4    499.96939   -384.24334     149.8667    141.10277    141.87091    384.24334   0.64558639 
    3700    2999949.1    500.50731   -386.82017    149.90251    141.05205    141.88144    386.82017    0.6459797 
    3720    3001262.5    499.73173   -338.33416    149.93833    141.04589    141.91584    338.33416     0.646373 
    3740    3000848.1     498.5527    -78.39234    149.97415    141.06735    141.84077     78.39234   0.64676631 
    3760    3001829.4    500.64168   -219.64921    150.00997    141.07479     141.8458    219.64921   0.64715961 
    3780      3003009    500.95813   -278.80204    150.04579    141.10732    141.83496    278.80204   0.64755292 
    3800    3002351.6    498.89858   -261.47154    150.08161    141.06866    141.80891    261.47154   0.64794622 
    3820    3002849.5    498.59994   -224.15682    150.11743    141.06427      141.803    224.15682   0.64833953 
    3840    3003000.3    499.50034   -273.55235    150.15325    140.99972     141.8412    273.55235   0.64873283 
    3860    3005010.7    499.71694   -54.089915    150.18907    141.06074    141.84092    54.089915   0.64912613 
    3880    3003478.1    499.27258   -77.562327    150.22489    141.04429    141.75131    77.562327   0.64951944 
    3900    3003804.9    499.49344    -260.5182     150.2607    141.05363    141.72356     260.5182   0.64991274 
    3920    3005784.8    497.37529   -397.00223    150.29652    141.06525    141.77149    397.00223   0.65030605 
    3940    3007643.3    499.48298   -292.20702    150.33234     141.0762    141.81434    292.20702   0.65069935 
    3960    3007123.1    500.26922   -357.77636    150.36816    141.02862    141.80386    357.77636   0.65109266 
    3980    3007456.1    500.99569   -548.00623    150.40398    140.98976    141.82486    548.00623   0.65148596 
    4000    3009253.9    499.39796   -385.32051     150.4398    141.03499    141.83036    385.32051   0.65187927 
    4020    3008348.8    500.60407   -92.132318    150.47562    141.00574    141.78336    92.132318   0.65227257 
    4040    3007430.4     500.2439   -45.548736    150.51144    140.95043    141.76195    45.548736   0.65266588 
    4060    3008912.9    502.08446   -113.94835    150.54726    140.93062    141.81802    113.94835   0.65305918 
    4080    3010209.3    500.59615   -388.75937    150.58308    140.94908    141.82679    388.75937   0.65345249 
    4100    3010030.6     501.7313   -262.58622    150.61889    140.90101    141.83302    262.58622   0.65384579 
    4120    3010723.4    500.58022    -353.6956    150.65471    140.90574    141.82717     353.6956   0.65423909 
    4140    3010717.5    501.48389   -165.50539    150.69053     140.8647    141.83449    165.50539    0.6546324 
    4160    3011248.4     500.3235   -367.59921    150.72635    140.89303    141.79727    367.59921    0.6550257 
    4180    3011044.5     501.1518   -614.73811    150.76217    140.87355    141.77359    614.73811   0.65541901 
    4200    3011427.3    499.93629   -291.11936    150.79799     140.8591    141.77248    291.11936   0.65581231 
    4220    3011179.4    500.16877   -47.973963    150.83381    140.77868     141.8081    47.973963   0.65620562 
    4240      3011035    499.83148   -297.28077    150.86963    140.75159    141.79492    297.28077   0.65659892 
    4260    3010536.8    500.42166   -340.22727    150.90545     140.7284    141.76116    340.22727   0.65699223 
    4280    3011385.4    499.67067   -284.64379    150.94127    140.73581    141.76001    284.64379   0.65738553 
    4300    3012609.6    500.23392   -391.96438    150.97708    140.71642    141.80353    391.96438   0.65777884 
    4320    3010905.8    499.87611   -148.05979     151.0129    140.60449    141.80251    148.05979   0.65817214 
    4340    3012109.6    499.46843   -281.30898    151.04872    140.58853    141.84167    281.30898   0.65856544 
    4360    3012175.8    500.44386   -447.72951    151.08454    140.55761    141.84235    447.72951   0.65895875 
    4380    3010330.5    500.10753   -176.52833    151.12036    140.48252    141.79761    176.52833   0.65935205 
    4400    3009400.8    500.23356    19.144881    151.15618    140.44395    141.75914   -19.144881   0.65974536 
    4420    3010732.7    500.06567   -87.808028      151.192     140.4779    141.75402    87.808028   0.66013866 
    4440    3011656.5    500.04689   -434.85056    151.22782      140.453    141.78906    434.85056   0.66053197 
    4460    3011388.7    499.84432   -442.74583    151.26364    140.44049     141.7555    442.74583   0.66092527 
    4480    3011886.5    500.52353   -341.95193    151.29946    140.44286    141.74298    341.95193   0.66131858 
    4500    3011717.8    500.88252   -362.04147    151.33527    140.41574    141.72886    362.04147   0.66171188 
    4520    3010547.4      499.234   -288.63627    151.37109    140.37724    141.67911    288.63627   0.66210519 
    4540    3009727.3    499.96444   -196.29938    151.40691    140.31633    141.66848    196.29938   0.66249849 
    4560    3011573.1    499.35164   -330.99804    151.44273    140.33484    141.70314    330.99804    0.6628918 
    4580      3011044    499.96922   -231.57832    151.47855    140.32218    141.65753    231.57832    0.6632851 
    4600    3010706.9    500.14251   -195.18993    151.51437    140.24084    141.69031    195.18993    0.6636784 
    4620    3010064.3    499.10858   -287.39679    151.55019    140.19638     141.6715    287.39679   0.66407171 
    4640    3010230.7    499.76919   -281.21308    151.58601    140.19276    141.64951    281.21308   0.66446501 
    4660    3011410.1    499.72292   -394.31433    151.62183     140.2344    141.62947    394.31433   0.66485832 
    4680    3011593.1    500.55299   -318.78702    151.65765     140.2593    141.57948    318.78702   0.66525162 
    4700      3012158    499.96754   -332.17715    151.69346    140.23813    141.59398    332.17715   0.66564493 
    4720    3013144.2    498.29726   -395.63346    151.72928    140.26476    141.58001    395.63346   0.66603823 
    4740      3014063    497.63037   -405.29757     151.7651    140.26879    141.58569    405.29757   0.66643154 
    4760    3014359.3     499.2599   -398.98841    151.80092    140.22833    141.60704    398.98841   0.66682484 
    4780    3014729.6    498.59028    -247.1262    151.83674    140.22846     141.5909     247.1262   0.66721815 
    4800    3014491.2    499.13181   -187.06665    151.87256    140.17648    141.59879    187.06665   0.66761145 
    4820    3015164.6    500.32781   -228.45744    151.90838    140.19435    141.57898    228.45744   0.66800475 
    4840    3014507.5    499.15625   -153.28151     151.9442    140.20356    141.50546    153.28151   0.66839806 
    4860    3015757.6    497.68894   -327.87744    151.98002    140.23833    141.49569    327.87744   0.66879136 
    4880    3017023.5    498.26508   -162.96653    152.01584    140.23232     141.5278    162.96653   0.66918467 
    4900    3017435.2    499.29852   -186.65016    152.05165    140.23554    141.51052    186.65016   0.66957797 
    4920    3017486.9    498.28897    -218.7676    152.08747    140.21584    141.49949     218.7676   0.66997128 
    4940    3017368.2    499.87036    -160.1349    152.12329    140.20493    141.47161     160.1349   0.67036458 
    4960    3018278.5    499.75444   -311.43842    152.15911    140.19801    141.48796    311.43842   0.67075789 
    4980    3018964.3    500.63529   -83.841677    152.19493    140.17315     141.5119    83.841677   0.67115119 
    5000    3017857.4    500.57999    -134.7279    152.23075    140.18431    141.41547     134.7279    0.6715445 
    5020    3021415.8    500.98964   -522.24299    152.26657    140.33197    141.39997    522.24299    0.6719378 
    5040    3022254.1    500.80013   -662.02084    152.30239    140.29885    141.43932    662.02084   0.67233111 
    5060    3020513.9     500.3905   -309.98459    152.33821     140.2698    141.35391    309.98459   0.67272441 
    5080      3020141    500.36161   -77.131806    152.37403    140.24464    141.32858    77.131806   0.67311771 
    5100    3020333.1     499.5348   -13.993677    152.40984    140.22167     141.3275    13.993677   0.67351102 
    5120    3023168.1    501.22272   -284.27162    152.44566    140.27927    141.36885    284.27162   0.67390432 
    5140    3023021.6    500.80501   -431.32297    152.48148    140.29142    141.31655    431.32297   0.67429763 
    5160    3024223.6     501.0174   -403.12953     152.5173     140.2853    141.34571    403.12953   0.67469093 
    5180    3024088.1    498.95823   -534.12452    152.55312    140.26383    141.32782    534.12452   0.67508424 
    5200    3022903.9    500.94736   -297.11595    152.58894    140.27923    141.22381    297.11595   0.67547754 
    5220    3024542.2    500.19268   -449.49796    152.62476    140.26783    141.27866    449.49796   0.67587085 
    5240    3025037.1    500.02514   -525.00022    152.66058    140.25822    141.27831    525.00022   0.67626415 
    5260    3026159.5    499.76009   -679.78458     152.6964    140.30683    141.24862    679.78458   0.67665746 
    5280    3025220.2     499.6121   -427.23127    152.73222    140.29832    141.18023    427.23127   0.67705076 
    5300    3025202.8    499.75102   -80.695451    152.76803     140.2652    141.17964    80.695451   0.67744406 
    5320    3025566.6    499.83811   -85.181018    152.80385    140.23127    141.19768    85.181018   0.67783737 
    5340    3024989.4    499.52422   -304.00543    152.83967    140.19841    141.17073    304.00543   0.67823067 
    5360    3024555.2    499.54175   -328.23789    152.87549    140.14856    141.16759    328.23789   0.67862398 
    5380    3025037.1    499.70223   -363.36843    152.91131    140.10749    141.19839    363.36843   0.67901728 
    5400    3023668.3    499.79928    -66.81241    152.94713    140.04224    141.16719     66.81241   0.67941059 
    5420    3023135.5    498.79942   -1.2614147    152.98295    139.99015    141.16177    1.2614147   0.67980389 
    5440    3023584.6    499.38607   -465.90541    153.01877    139.94741     141.1928    465.90541    0.6801972 
    5460    3025113.8    498.86934   -685.96476    153.05459    139.97581     141.2025    685.96476    0.6805905 
    5480    3024748.8    499.00857   -396.52517    153.09041    139.96334      141.165    396.52517   0.68098381 
    5500    3024157.6    499.08397   -236.08338    153.12622    139.94385    141.12405    236.08338   0.68137711 
    5520    3024016.3    499.69396   -127.77632    153.16204    139.92048    141.10802    127.77632   0.68177042 
    5540    3024256.3    498.73719   -438.20868    153.19786    139.89389    141.11304    438.20868   0.68216372 
    5560    3023698.6    500.55561   -368.21645    153.23368     139.8347    141.11374    368.21645   0.68255702 
    5580    3022381.5    499.19295   -183.87495     153.2695    139.74959    141.10519    183.87495   0.68295033 
    5600    3022754.5    499.23412   -224.26678    153.30532    139.78351     141.0554    224.26678   0.68334363 
    5620    3023538.8    499.60529   -422.27742    153.34114    139.83127    141.01086    422.27742   0.68373694 
    5640    3024530.3     499.4658   -309.22328    153.37696    139.82354    141.03195    309.22328   0.68413024 
    5660    3023717.6    500.06733   -250.92324    153.41278    139.81211    140.97266    250.92324   0.68452355 
    5680    3024853.1    501.46645    -530.5226     153.4486    139.79035    141.01463     530.5226   0.68491685 
    5700    3024630.4    499.34134   -580.08772    153.48441    139.71842    141.04392    580.08772   0.68531016 
    5720    3026119.1     500.5425   -627.01542    153.52023    139.73362    141.06507    627.01542   0.68570346 
    5740    3026744.6    500.32458   -304.23066    153.55605    139.76801    141.02661    304.23066   0.68609677 
    5760    3026069.4    499.93203   -306.86912    153.59187    139.73609    140.99446    306.86912   0.68649007 
    5780    3027627.1    499.70826   -392.22761    153.62769    139.76263    141.00737    392.22761   0.68688338 
    5800    3029160.7    499.46791   -345.81987    153.66351    139.78069    141.02769    345.81987   0.68727668 
    5820    3030008.3    499.20748   -177.12209    153.69933    139.79166    141.02321    177.12209   0.68766998 
    5840    3031225.7    498.93639    -131.9471    153.73515    139.74391    141.09519     131.9471   0.68806329 
    5860    3033012.7    498.54557   -395.89655    153.77097    139.79134     141.0976    395.89655   0.68845659 
    5880    3033753.6    498.80916    -358.1688    153.80679    139.79203     141.0985     358.1688    0.6888499 
    5900    3034284.9    499.60504   -388.94095     153.8426    139.82669    141.05538    388.94095    0.6892432 
    5920    3034057.2    499.39733   -485.73407    153.87842    139.80358    141.03527    485.73407   0.68963651 
    5940    3035749.4    498.11296   -651.92505    153.91424    139.81932    141.06521    651.92505   0.69002981 
    5960      3036670    499.47787    -714.3781    153.95006    139.82261    141.07183     714.3781   0.69042312 
    5980    3036623.6    498.82079   -437.48116    153.98588    139.84429      141.015    437.48116   0.69081642 
    6000    3035454.1    498.58694   -173.87226     154.0217     139.7915    140.98113    173.87226   0.69120973 
    6020      3036904    498.77096   -33.958857    154.05752    139.82331     140.9836    33.958857   0.69160303 
    6040    3037366.6    500.19401   -192.97888    154.09334    139.86397    140.93131    192.97888   0.69199633 
    6060    3036883.2    499.72828   -211.97273    154.12916    139.84597    140.89427    211.97273   0.69238964 
    6080    3039780.8    499.42948   -435.86839    154.16498    139.95234    140.88877    435.86839   0.69278294 
    6100    3040858.3    498.76029   -329.52474    154.20079    139.98032    140.87781    329.52474   0.69317625 
    6120    3040943.9    499.50239   -402.08428    154.23661     139.9851    140.84425    402.08428   0.69356955 
    6140    3040830.9    500.38866   -714.31632    154.27243    140.00361     140.7877    714.31632   0.69396286 
    6160      3041314    499.73871   -800.06145    154.30825    139.99149    140.78957    800.06145   0.69435616 
    6180    3041384.7    499.83711    -389.2539    154.34407    139.92314    140.82893     389.2539   0.69474947 
    6200    3041264.4    500.20133   -386.45669    154.37989    139.94188    140.77182    386.45669   0.69514277 
    6220    3041555.5    500.56063   -231.10184    154.41571    139.94663    140.74787    231.10184   0.69553608 
    6240    3043178.6    501.74228   -294.18949    154.45153    140.00243     140.7342    294.18949   0.69592938 
    6260    3043514.1    501.52827   -146.24413    154.48735    139.95333    140.76645    146.24413   0.69632269 
    6280    3041047.7     502.6315   -47.667241    154.52317    139.87421    140.69931    47.667241   0.69671599 
    6300    3041736.6    501.92274   -355.88255    154.55898    139.90655    140.66606    355.88255   0.69710929 
    6320    3043151.9    502.22267   -431.67339     154.5948     139.8484     140.7574    431.67339    0.6975026 
    6340    3043094.3    500.65342   -552.31424    154.63062    139.78947    140.78146    552.31424    0.6978959 
    6360    3041602.8    501.80985   -516.17964    154.66644    139.71686    140.75298    516.17964   0.69828921 
    6380    3042378.8    503.02828   -539.25125    154.70226    139.74581    140.72714    539.25125   0.69868251 
    6400    3041632.4    501.55561    -330.3585    154.73808    139.71014    140.69595     330.3585   0.69907582 
    6420    3040964.2    501.51146   -263.52699     154.7739    139.67154    140.67136    263.52699   0.69946912 
    6440    3040972.9    499.98241    -394.1195    154.80972    139.58625    140.72514     394.1195   0.69986243 
    6460    3041927.3    501.41134   -405.66206    154.84554    139.53997    140.78343    405.66206   0.70025573 
    6480    3041450.5    501.14169   -332.89645    154.88136    139.52447    140.74443    332.89645   0.70064904 
    6500    3040803.4    501.60688   -143.20776    154.91717    139.51348    140.69303    143.20776   0.70104234 
    6520    3041891.2    499.90906   -266.67124    154.95299    139.46932    140.75539    266.67124   0.70143564 
    6540    3041615.8    500.66762   -335.61213    154.98881    139.47274    140.70666    335.61213   0.70182895 
    6560      3041685    499.97955   -421.51175    155.02463    139.50478    140.64505    421.51175   0.70222225 
    6580    3041335.3    499.28315   -572.21102    155.06045    139.46147    140.64006    572.21102   0.70261556 
    6600    3043135.9    499.41088    -643.9915    155.09627    139.48128    140.67084     643.9915   0.70300886 
    6620    3042532.6    500.15522   -544.67751    155.13209    139.44669    140.64535    544.67751   0.70340217 
    6640    3041119.8    499.47103   -182.29841    155.16791     139.3872    140.60758    182.29841   0.70379547 
    6660    3042535.5    499.68864    -280.9533    155.20373    139.41338    140.61416     280.9533   0.70418878 
    6680    3043543.5    499.58999   -402.57311    155.23955     139.4454      140.596    402.57311   0.70458208 
    6700    3043497.2    499.66558   -252.90302    155.27536    139.47413    140.53247    252.90302   0.70497539 
    6720    3044446.8    499.27097   -266.84049    155.31118     139.4362    140.58213    266.84049   0.70536869 
    6740    3045371.5    499.67887    -183.8648      155.347    139.41123    140.61758     183.8648     0.705762 
    6760    3045582.1    498.58674   -402.26593    155.38282    139.39477     140.6115    402.26593    0.7061553 
    6780    3046359.6    498.52439   -697.75098    155.41864     139.4018    140.60788    697.75098    0.7065486 
    6800    3045985.5    499.64386   -434.92555    155.45446    139.37852     140.5817    434.92555   0.70694191 
    6820    3045348.4    499.66461   -328.93197    155.49028    139.32743    140.57144    328.93197   0.70733521 
    6840    3045292.1    499.92878   -363.44788     155.5261    139.30288    140.56124    363.44788   0.70772852 
    6860    3045382.1    499.80838   -386.81709    155.56192    139.28872    140.54732    386.81709   0.70812182 
    6880    3045556.4    499.92648   -322.95245    155.59774    139.27007    140.54182    322.95245   0.70851513 
    6900    3045958.3    500.07797   -234.63335    155.63355    139.25566    140.54256    234.63335   0.70890843 
    6920    3045222.4    500.44006   -336.03793    155.66937    139.22911    140.50306    336.03793   0.70930174 
    6940    3045915.2    500.03447   -337.68996    155.70519    139.19742    140.53469    337.68996   0.70969504 
    6960      3045788    499.74243     -464.568    155.74101    139.22334    140.47034      464.568   0.71008835 
    6980    3045861.4    500.35947   -485.78723    155.77683    139.18944    140.47563    485.78723   0.71048165 
    7000    3046949.3    501.23184   -484.07809    155.81265    139.14788    140.53546    484.07809   0.71087495 
    7020    3046564.1    501.14963   -416.53717    155.84847    139.08151    140.55243    416.53717   0.71126826 
    7040    3046580.7    501.40609   -443.03129    155.88429    139.08591    140.51647    443.03129   0.71166156 
    7060    3046619.6    502.61241   -446.16332    155.92011    139.07536    140.49664    446.16332   0.71205487 
    7080    3047921.3    500.98815   -225.07304    155.95593    139.10029    140.49919    225.07304   0.71244817 
    7100    3048004.4    502.16277   -102.80997    155.99174    139.11264    140.45829    102.80997   0.71284148 
    7120    3048689.5    501.11125   -357.66888    156.02756    139.05654    140.51427    357.66888   0.71323478 
    7140    3049080.1    500.15859   -396.78615    156.06338    139.04225    140.51446    396.78615   0.71362809 
    7160    3049074.8    501.10296   -501.16129     156.0992    139.03498    140.48932    501.16129   0.71402139 
    7180    3049496.3    499.99767   -518.52577    156.13502    139.00512    140.50668    518.52577    0.7144147 
    7200    3049251.5    500.44704   -410.41105    156.17084     139.0033    140.46502    410.41105     0.714808 
    7220    3048886.2    500.12644   -151.45496    156.20666    138.95914    140.46061    151.45496   0.71520131 
    7240    3048801.3    500.05681   -81.522814    156.24248     138.9503    140.43343    81.522814   0.71559461 
    7260    3049068.2    499.08483   -317.63131     156.2783    138.94991    140.41392    317.63131   0.71598791 
    7280    3050450.1    500.78353   -632.71209    156.31412    138.96235    140.43281    632.71209   0.71638122 
    7300      3049032    499.40087   -347.46921    156.34993    138.92996    140.36808    347.46921   0.71677452 
    7320    3047840.8    500.99359   -61.146933    156.38575    138.84988    140.36201    61.146933   0.71716783 
    7340    3050953.6    500.21312   -346.97553    156.42157    138.93862    140.38347    346.97553   0.71756113 
    7360    3052220.9    500.15087     -552.149    156.45739    138.99746    140.35019      552.149   0.71795444 
    7380    3052676.5    499.19784   -243.83925    156.49321    138.96011    140.37674    243.83925   0.71834774 
    7400    3053071.1    500.56188   -220.62661    156.52903    138.95379    140.36914    220.62661   0.71874105 
    7420    3053495.1     499.9578   -246.94985    156.56485    138.94521    140.36518    246.94985   0.71913435 
    7440    3054566.7    499.67221   -419.62418    156.60067    139.02212    140.30466    419.62418   0.71952766 
    7460    3056139.6     499.2428   -562.90113    156.63649    139.03387    140.33295    562.90113   0.71992096 
    7480    3056809.1    498.96656   -356.19078    156.67231    138.99743    140.36838    356.19078   0.72031426 
    7500    3057489.2    499.04234   -249.59259    156.70812     139.0384    140.32617    249.59259   0.72070757 
    7520    3058469.4    498.38337   -110.69265    156.74394    139.03812    140.33936    110.69265   0.72110087 
    7540      3060283    497.59154   -380.53668    156.77976    139.10158    140.32645    380.53668   0.72149418 
    7560    3060984.2    499.61496   -390.05676    156.81558    139.08024    140.34807    390.05676   0.72188748 
    7580    3059572.2    501.50907   -327.30953     156.8514      138.975     140.3575    327.30953   0.72228079 
    7600    3060342.3    500.86245   -300.33227    156.88722     139.0033     140.3322    300.33227   0.72267409 
    7620    3062130.4    500.30339   -476.29983    156.92304    139.02626    140.35895    476.29983    0.7230674 
    7640    3061767.1    501.45785   -434.34958    156.95886    138.98452    140.35242    434.34958    0.7234607 
    7660    3060277.7    499.88035    -385.8532    156.99468     138.9274     140.3098     385.8532   0.72385401 
    7680    3060364.1    501.42714   -208.25757     157.0305    138.85907    140.35078    208.25757   0.72424731 
    7700    3060477.6    501.06988   -185.67081    157.06631    138.84726    140.33591    185.67081   0.72464062 
    7720    3061534.7    501.53599    -444.0768    157.10213    138.83262    140.36718     444.0768   0.72503392 
    7740      3061690    500.75338   -424.90875    157.13795    138.83322     140.3417    424.90875   0.72542722 
    7760    3063032.5    500.39753   -207.99999    157.17377    138.82498    140.37957    207.99999   0.72582053 
    7780    3063201.7    501.97168    -222.3387    157.20959    138.71821    140.46337     222.3387   0.72621383 
    7800    3063591.2    501.50873   -254.90096    157.24541    138.72201    140.44538    254.90096   0.72660714 
    7820    3064681.8    501.22938   -407.32675    157.28123    138.74885    140.43621    407.32675   0.72700044 
    7840    3064991.8    501.33791   -279.22288    157.31705    138.74128     140.4261    279.22288   0.72739375 
    7860    3065710.6    499.46979   -419.33327    157.35287     138.7355    140.43291    419.33327   0.72778705 
    7880    3064894.3    499.79459   -448.05354    157.38869    138.66769    140.43221    448.05354   0.72818036 
    7900    3066374.8    500.84632   -345.52988     157.4245    138.69383     140.4416    345.52988   0.72857366 
    7920      3066007    499.49363   -200.09229    157.46032    138.68136    140.40543    200.09229   0.72896697 
    7940      3066425     499.1939   -337.06674    157.49614    138.69347    140.38038    337.06674   0.72936027 
    7960    3067366.5    500.40667   -318.14417    157.53196    138.73417    140.35037    318.14417   0.72975358 
    7980      3065970    500.14482   -165.31349    157.56778    138.66845    140.32104    165.31349   0.73014688 
    8000    3066201.7    499.69227   -314.21209     157.6036    138.63561      140.333    314.21209   0.73054018 
    8020    3067236.1    500.88871    -463.8161    157.63942    138.65418    140.32964     463.8161   0.73093349 
    8040      3066751    500.22911   -237.31826    157.67524    138.61899    140.31118    237.31826   0.73132679 
    8060    3068026.9     499.7836   -514.10603    157.71106    138.62829    140.32827    514.10603    0.7317201 
    8080    3067753.4    499.48555   -477.43829    157.74688    138.62426    140.28797    477.43829    0.7321134 
    8100    3067406.5    500.15274   -400.50227    157.78269    138.63644    140.22794    400.50227   0.73250671 
    8120    3067421.7    500.59235   -338.21105    157.81851    138.64067    140.19254    338.21105   0.73290001 
    8140    3065389.9    499.52714    -393.8039    157.85433    138.56837    140.14097     393.8039   0.73329332 
    8160    3066796.3    499.16266   -490.60461    157.89015    138.59061    140.15096    490.60461   0.73368662 
    8180    3065503.4     498.8823    -363.4566    157.92597    138.54903    140.10214     363.4566   0.73407993 
    8200    3065446.2    501.18561   -278.04946    157.96179    138.52782     140.0892    278.04946   0.73447323 
    8220    3065774.3    499.95257   -335.39974    157.99761    138.58326     140.0164    335.39974   0.73486653 
    8240    3066573.6    499.46717   -145.54022    158.03343    138.62232     139.9817    145.54022   0.73525984 
    8260    3066089.7    499.83444   -151.57998    158.06925     138.5963    139.95417    151.57998   0.73565314 
    8280      3065982    500.90854   -492.30013    158.10507    138.57319    139.94088    492.30013   0.73604645 
    8300    3067009.4    499.41226   -555.89515    158.14088    138.59556    139.93348    555.89515   0.73643975 
    8320    3067759.4    499.12416   -510.94962     158.1767    138.59622    139.93534    510.94962   0.73683306 
    8340    3067233.2    498.69528   -545.56086    158.21252    138.58744    139.88851    545.56086   0.73722636 
    8360    3066800.8    499.73794   -465.79064    158.24834    138.54927    139.87567    465.79064   0.73761967 
    8380    3068889.2    498.56417   -620.64233    158.28416    138.59036    139.89775    620.64233   0.73801297 
    8400    3067548.5     498.6509   -314.93677    158.31998    138.54711    139.84864    314.93677   0.73840628 
    8420    3068558.4    498.64777   -460.02043     158.3558    138.62367    139.78579    460.02043   0.73879958 
    8440    3068908.9    498.43769   -324.87327    158.39162    138.62223     139.7716    324.87327   0.73919289 
    8460    3069613.6     498.3502   -500.87979    158.42744    138.59789    139.79663    500.87979   0.73958619 
    8480    3070487.6    498.56969   -521.06018    158.46326    138.62994     139.7725    521.06018   0.73997949 
    8500      3070606    498.92825   -310.22982    158.49907    138.58353     139.7931    310.22982    0.7403728 
    8520    3071607.4    500.18591   -578.79372    158.53489    138.56941    139.82134    578.79372    0.7407661 
    8540    3070025.6    500.62949   -402.16837    158.57071     138.4681       139.82    402.16837   0.74115941 
    8560      3069132    501.39078   -116.03728    158.60653    138.43307     139.7831    116.03728   0.74155271 
    8580    3071771.9    499.76527   -286.25209    158.64235    138.48072    139.82362    286.25209   0.74194602 
    8600    3072824.3    501.15525   -782.96255    158.67817    138.50945    139.81094    782.96255   0.74233932 
    8620    3069621.9    500.79489    -572.4546    158.71399      138.453    139.69064     572.4546   0.74273263 
    8640    3069099.9    501.03944   -414.12801    158.74981    138.40046    139.68838    414.12801   0.74312593 
    8660    3069497.8    501.13145   -388.75029    158.78563    138.36592    139.70985    388.75029   0.74351924 
    8680    3069589.8    500.76645   -287.67973    158.82145    138.35495     139.6936    287.67973   0.74391254 
    8700    3067282.7    500.22416   -231.53889    158.85726    138.27836    139.63443    231.53889   0.74430584 
    8720    3068757.7    500.28453   -365.43821    158.89308    138.30829    139.63986    365.43821   0.74469915 
    8740      3069772    500.97108   -455.45649     158.9289    138.30603    139.65681    455.45649   0.74509245 
    8760    3069803.4    500.95863   -443.66522    158.96472    138.24256    139.69088    443.66522   0.74548576 
    8780    3069091.9    499.28052   -306.02773    159.00054    138.22399     139.6458    306.02773   0.74587906 
    8800    3068303.7    499.88502   -275.31559    159.03636    138.15577    139.64741    275.31559   0.74627237 
    8820    3069458.5    500.54008   -604.10267    159.07218    138.15837    139.66588    604.10267   0.74666567 
    8840    3069701.9    500.13369   -704.74799      159.108    138.11477     139.6896    704.74799   0.74705898 
    8860    3070954.8    498.48796   -513.07072    159.14382    138.09437     139.7358    513.07072   0.74745228 
    8880    3070735.5    500.22811   -328.12546    159.17964    138.07934    139.70958    328.12546   0.74784559 
    8900    3069997.6    500.08902    -338.2615    159.21545    138.07923     139.6447     338.2615   0.74823889 
    8920    3070798.5    500.13512   -374.12387    159.25127    138.07246    139.65656    374.12387    0.7486322 
    8940    3073650.8    500.35583   -522.56089    159.28709     138.1232    139.70351    522.56089    0.7490255 
    8960    3072489.7    499.83227   -220.67063    159.32291    138.05201    139.69134    220.67063    0.7494188 
    8980    3071759.2    499.66027   -111.96725    159.35873    137.99005    139.68943    111.96725   0.74981211 
    9000    3073648.8    500.04205   -215.92956    159.39455    137.98571    139.74834    215.92956   0.75020541 
    9020    3074958.8    499.18754   -567.09558    159.43037    137.97659    139.78573    567.09558   0.75059872 
    9040    3075761.2    499.50874   -700.66328    159.46619     137.9614    139.80619    700.66328   0.75099202 
    9060    3076077.5    499.46799   -632.23202    159.50201    137.93001    139.82098    632.23202   0.75138533 
    9080    3075447.1    499.94767   -181.91818    159.53783    137.92737    139.76362    181.91818   0.75177863 
    9100    3076976.6    498.68931   -278.15994    159.57364    137.90731    139.82207    278.15994   0.75217194 
    9120    3078171.9    500.20539   -418.05841    159.60946    137.90611    139.84622    418.05841   0.75256524 
    9140    3078003.7    500.47638    -403.1597    159.64528    137.89469    139.81878     403.1597   0.75295855 
    9160    3078652.6    499.60727   -306.41803     159.6811    137.89884    139.81268    306.41803   0.75335185 
    9180    3078271.6    499.34434   -368.96595    159.71692    137.88219     139.7809    368.96595   0.75374515 
    9200    3079806.1    499.49632       -421.7    159.75274     137.8736    139.82793        421.7   0.75413846 
    9220    3079140.7    500.95378   -574.18875    159.78856    137.90169    139.73791    574.18875   0.75453176 
    9240    3078717.2    501.19728   -516.36682    159.82438     137.8519    139.73784    516.36682   0.75492507 
    9260      3079778    500.06108   -366.99393     159.8602    137.85773    139.74876    366.99393   0.75531837 
    9280    3080420.5     500.8268   -192.24869    159.89602    137.88615    139.71779    192.24869   0.75571168 
    9300    3080855.1    500.84481   -293.84516    159.93183     137.8626    139.73007    293.84516   0.75610498 
    9320    3082040.4    499.93074    -395.6825    159.96765    137.91138     139.7031     395.6825   0.75649829 
    9340    3083802.9    499.01432   -524.04069    160.00347    137.92269    139.74024    524.04069   0.75689159 
    9360    3083429.5     499.9631   -524.00885    160.03929    137.87832      139.737    524.00885    0.7572849 
    9380    3082551.2    500.25232   -328.56331    160.07511    137.86589    139.67853    328.56331    0.7576782 
    9400    3084058.5    499.93967   -376.74772    160.11093     137.8679    139.71353    376.74772   0.75807151 
    9420    3086488.4    500.54199   -481.24954    160.14675    137.92396    139.73551    481.24954   0.75846481 
    9440    3086026.5    498.92208   -249.99437    160.18257    137.95335     139.6536    249.99437   0.75885811 
    9460    3084940.7    500.40708   -238.64729    160.21839    137.91705       139.61    238.64729   0.75925142 
    9480    3086489.3    499.89955   -385.29331    160.25421    137.96327    139.60207    385.29331   0.75964472 
    9500    3088648.3    499.27585   -686.08392    160.29002    138.01176    139.61943    686.08392   0.76003803 
    9520    3088917.7    499.80213    -411.5641    160.32584    138.00118    139.61112     411.5641   0.76043133 
    9540    3087214.9    499.15713   -63.319309    160.36166    137.94316    139.56166    63.319309   0.76082464 
    9560    3088540.9    499.49558   -111.33545    160.39748    137.94917    139.58435    111.33545   0.76121794 
    9580    3090064.9    499.40528   -490.36064     160.4333    138.05504    139.51497    490.36064   0.76161125 
    9600    3090542.8    497.91556   -543.45102    160.46912    138.02434    139.53643    543.45102   0.76200455 
    9620    3090967.4     498.2318   -546.10593    160.50494    137.97288    139.57649    546.10593   0.76239786 
    9640    3091282.5     499.5632   -277.87059    160.54076    137.97556    139.55687    277.87059   0.76279116 
    9660    3091296.6    498.55806   -292.29594    160.57658    137.94565    139.55663    292.29594   0.76318447 
    9680    3093015.4    498.78978   -564.73217     160.6124    137.93828    139.61055    564.73217   0.76357777 
    9700    3092833.3    498.73963   -392.53122    160.64821    137.93368    139.57585    392.53122   0.76397107 
    9720    3089997.8    499.25526   -14.197269    160.68403    137.89695    139.45394    14.197269   0.76436438 
    9740    3090770.8     498.2955   -372.53082    160.71985    137.94521    139.40895    372.53082   0.76475768 
    9760    3092863.1      498.473   -625.27861    160.75567    137.96728    139.44993    625.27861   0.76515099 
    9780    3092323.8    499.93607   -618.66636    160.79149    137.96641    139.39543    618.66636   0.76554429 
    9800    3091979.4     499.1765   -437.53308    160.82731    137.91532    139.40049    437.53308    0.7659376 
    9820    3091285.8    500.85781   -218.27131    160.86313    137.88912    139.36465    218.27131    0.7663309 
    9840    3091485.5    499.32414   -115.40698    160.89895    137.95192     139.2792    115.40698   0.76672421 
    9860    3092713.1    501.07946   -250.25063    160.93477    137.99835    139.25662    250.25063   0.76711751 
    9880    3092334.3    498.63592   -290.80885    160.97059    137.96511    139.24213    290.80885   0.76751082 
    9900    3094368.3    499.96557   -468.43766     161.0064     137.9877    139.27991    468.43766   0.76790412 
    9920    3093499.9    499.88774   -261.62297    161.04222    137.96064    139.23716    261.62297   0.76829742 
    9940    3093186.5    500.44192   -221.12025    161.07804    137.95583    139.19695    221.12025   0.76869073 
    9960    3094986.9    499.14114   -425.67459    161.11386    137.98428    139.21829    425.67459   0.76908403 
    9980    3096108.3    499.54653   -358.27151    161.14968    138.04324    139.17831    358.27151   0.76947734 
   10000    3095521.9    499.64577   -382.65089     161.1855    138.02041    139.14403    382.65089   0.76987064 
   10020    3096930.2    500.73536   -493.84374    161.22132    138.02593    139.17085    493.84374   0.77026395 
   10040    3096588.3    501.10779   -391.01646    161.25714    138.03246    139.11799    391.01646   0.77065725 
   10060    3095745.1    499.92526   -355.45329    161.29296    137.99938    139.08255    355.45329   0.77105056 
   10080    3095130.3    500.40451   -523.43827    161.32878    137.95426    139.06952    523.43827   0.77144386 
   10100    3094665.2    499.63548   -384.57726    161.36459    137.97585    138.99601    384.57726   0.77183717 
   10120    3096626.1    499.95163   -420.36843    161.40041    137.98129    139.04774    420.36843   0.77223047 
   10140    3096682.6    499.44115   -318.78069    161.43623    137.94484    139.05616    318.78069   0.77262378 
   10160    3098073.2    499.90879   -382.92562    161.47205    137.97137      139.061    382.92562   0.77301708 
   10180    3098515.4    500.30713   -572.17513    161.50787    137.97326    139.04809    572.17513   0.77341038 
   10200    3098770.4    499.94511   -680.61702    161.54369    137.95317    139.04895    680.61702   0.77380369 
   10220    3099160.4    500.08107   -558.95438    161.57951    137.94034    139.04855    558.95438   0.77419699 
   10240    3098558.2    498.63865   -290.73549    161.61533    137.93151    138.99962    290.73549    0.7745903 
   10260    3099096.2    499.88579   -252.94732    161.65115    137.94088    138.98351    252.94732    0.7749836 
   10280    3099478.8    497.57082   -453.40204    161.68697    137.91705    138.99388    453.40204   0.77537691 
   10300      3101289    498.39164   -488.50087    161.72278    137.90937    139.05201    488.50087   0.77577021 
   10320    3101735.6    499.61055   -207.57213     161.7586    137.89257    139.05817    207.57213   0.77616352 
   10340    3100826.1    500.14613    31.023197    161.79442    137.83029    139.04942   -31.023197   0.77655682 
   10360    3101437.4    499.80163   -166.28196    161.83024    137.82905     139.0473    166.28196   0.77695013 
   10380    3103173.3    499.32176   -377.53279    161.86606    137.83829    139.08502    377.53279   0.77734343 
   10400    3103368.4    499.52231   -512.37427    161.90188    137.87299      139.028    512.37427   0.77773673 
   10420    3102310.4    499.78513   -514.82694     161.9377    137.81234      139.011    514.82694   0.77813004 
   10440    3101527.8    500.45664   -554.60273    161.97352    137.74577    139.01235    554.60273   0.77852334 
   10460    3102302.2    499.71068   -497.66102    162.00934    137.76545    138.99646    497.66102   0.77891665 
   10480    3103141.2    500.04704   -632.94731    162.04516    137.74291    139.02607    632.94731   0.77930995 
   10500    3102067.1    500.38435   -435.85942    162.08097    137.68576    139.00491    435.85942   0.77970326 
   10520    3100976.5    500.25243   -225.10286    162.11679    137.67575    138.93544    225.10286   0.78009656 
   10540    3101034.9    499.45908   -300.37735    162.15261    137.66935    138.91382    300.37735   0.78048987 
   10560      3100694    500.50614   -255.68032    162.18843    137.69813    138.83884    255.68032   0.78088317 
   10580    3100609.5    501.80731   -153.30268    162.22425    137.64171     138.8613    153.30268   0.78127648 
   10600    3101790.8    500.69466   -439.12599    162.26007    137.58911    138.93663    439.12599   0.78166978 
   10620    3102847.6    499.80604   -538.24399    162.29589    137.61177    138.93042    538.24399   0.78206309 
   10640    3102722.9    499.66203   -644.66457    162.33171    137.55634    138.95015    644.66457   0.78245639 
   10660    3102889.9    501.52694    -516.1821    162.36753    137.56621      138.917     516.1821   0.78284969 
   10680    3102272.6    499.91584   -539.96678    162.40335    137.50403    138.92153    539.96678     0.783243 
   10700    3102094.7    499.76872   -634.33888    162.43916    137.48362    138.90355    634.33888    0.7836363 
   10720    3103977.9    500.37791   -559.56593    162.47498    137.52426    138.91617    559.56593   0.78402961 
   10740    3102633.4    499.66022   -142.89594     162.5108    137.47569    138.87443    142.89594   0.78442291 
   10760    3102643.4    499.04901   -220.04577    162.54662     137.4812    138.83872    220.04577   0.78481622 
   10780    3103128.3    500.62868   -261.46171    162.58244     137.4425    138.86892    261.46171   0.78520952 
   10800    3104093.1    499.73029    -420.6677    162.61826    137.44173    138.88228     420.6677   0.78560283 
   10820    3104657.3    501.46342   -384.58235    162.65408    137.44956    138.86902    384.58235   0.78599613 
   10840    3105097.3    499.70845   -404.72643     162.6899    137.46679    138.84071    404.72643   0.78638944 
   10860    3106492.7    499.49056   -575.04503    162.72572    137.47744    138.86178    575.04503   0.78678274 
   10880    3107331.8     500.5707   -535.15062    162.76154     137.4818     138.8643    535.15062   0.78717604 
   10900    3107205.6    501.03806   -581.01031    162.79735    137.42648      138.884    581.01031   0.78756935 
   10920      3105936    501.39424   -447.70537    162.83317    137.42281    138.80043    447.70537   0.78796265 
   10940    3105525.7    499.94641    -400.3758    162.86899    137.34441    138.83076     400.3758   0.78835596 
   10960    3106026.5    499.66488   -395.57721    162.90481    137.37436    138.79237    395.57721   0.78874926 
   10980    3107043.5    499.81871   -389.71129    162.94063    137.41063    138.77065    389.71129   0.78914257 
   11000    3107633.1    499.92652   -377.63354    162.97645    137.41338    138.76369    377.63354   0.78953587 
   11020    3108327.8    499.92011      -599.12    163.01227    137.46568    138.71143       599.12   0.78992918 
   11040    3107191.1    499.96868   -343.97081    163.04809    137.43556    138.66062    343.97081   0.79032248 
   11060    3108454.5     499.5025     -538.334    163.08391    137.47234    138.64943      538.334   0.79071579 
   11080    3109255.8    499.74771    -342.5531    163.11973    137.47265     138.6544     342.5531   0.79110909 
   11100    3108476.7    499.34873    -122.0512    163.15554    137.46642    138.59551     122.0512    0.7915024 
   11120    3109910.5    499.92047   -406.13608    163.19136    137.46904    138.62636    406.13608    0.7918957 
   11140    3110938.4    499.99534    -591.9707    163.22718    137.44328    138.66773     591.9707     0.792289 
   11160    3110933.8    499.83757   -637.98155      163.263    137.46011    138.62013    637.98155   0.79268231 
   11180      3110424    498.58726    -490.8852    163.29882    137.48403    138.54291     490.8852   0.79307561 
   11200    3111546.9    500.13145   -351.46191    163.33464    137.43802    138.60892    351.46191   0.79346892 
   11220      3111992    499.45807    -142.3228    163.37046    137.42891    138.60753     142.3228   0.79386222 
   11240    3113044.5    499.51821   -330.64929    163.40628    137.38765    138.66564    330.64929   0.79425553 
   11260    3112236.3     498.7242   -147.45008     163.4421    137.37222    138.61484    147.45008   0.79464883 
   11280    3113446.1    499.67078   -178.09416    163.47792    137.38074    138.62974    178.09416   0.79504214 
   11300    3115528.2    497.98972   -520.70324    163.51373    137.34738    138.72574    520.70324   0.79543544 
   11320    3115320.8    498.68207   -572.30293    163.54955    137.33718    138.69643    572.30293   0.79582875 
   11340    3115311.9      499.151   -523.32579    163.58537    137.30784     138.6953    523.32579   0.79622205 
   11360    3114569.9    499.56594    -227.8894    163.62119    137.30249     138.6373     227.8894   0.79661535 
   11380      3114239    499.02459   -183.53901    163.65701    137.26128    138.63385    183.53901   0.79700866 
   11400    3114875.3     498.3347   -439.84549    163.69283    137.24316    138.65014    439.84549   0.79740196 
   11420    3115683.4     499.5672   -431.98266    163.72865    137.25735    138.64143    431.98266   0.79779527 
   11440      3116481    500.04202    -279.3656    163.76447    137.27849    138.62524     279.3656   0.79818857 
   11460    3116833.2    500.16196   -341.54804    163.80029    137.24724    138.64215    341.54804   0.79858188 
   11480    3116447.8    501.00135   -350.88917    163.83611    137.20811    138.63423    350.88917   0.79897518 
   11500      3117424    500.47937   -438.60532    163.87192    137.15162    138.70445    438.60532   0.79936849 
   11520    3118265.1    499.88231   -404.60277    163.90774     137.1523    138.71086    404.60277   0.79976179 
   11540    3119324.7    500.46057   -546.43859    163.94356    137.20217    138.67725    546.43859    0.8001551 
   11560    3119708.1    500.24859   -635.36784    163.97938    137.13724    138.72966    635.36784    0.8005484 
   11580    3120996.7    501.32569   -544.48501     164.0152    137.13252    138.76142    544.48501   0.80094171 
   11600    3121688.9    500.01633    -479.7617    164.05102    137.12226    138.77228     479.7617   0.80133501 
   11620    3121074.5     500.5132   -385.96822    164.08684    137.14546    138.69122    385.96822   0.80172831 
   11640    3121626.1    499.56826   -262.51167    164.12266    137.13109    138.69998    262.51167   0.80212162 
   11660    3122036.1    500.13819   -291.24385    164.15848    137.13072    138.68831    291.24385   0.80251492 
   11680    3122761.2    499.66962   -402.22627     164.1943    137.11596    138.70518    402.22627   0.80290823 
   11700    3123077.6     499.1337   -417.51563    164.23011    137.11947    138.68544    417.51563   0.80330153 
   11720    3124611.4    498.81588   -470.28134    164.26593    137.16696    138.67526    470.28134   0.80369484 
   11740    3125134.2    499.18805   -585.54295    164.30175    137.17516    138.65994    585.54295   0.80408814 
   11760    3124496.9    499.23769    -487.2865    164.33757    137.10132     138.6761     487.2865   0.80448145 
   11780    3123797.8    499.87733    -159.7799    164.37339    137.07623    138.64022     159.7799   0.80487475 
   11800    3123957.8    499.95525   -68.299145    164.40921    137.11201    138.58095    68.299145   0.80526806 
   11820    3125716.9    499.45551   -556.16957    164.44503    137.16862    138.57157    556.16957   0.80566136 
   11840    3125444.8    498.46831   -821.82062    164.48085    137.10964    138.58891    821.82062   0.80605467 
   11860    3126433.1     500.6649   -683.94802    164.51667    137.09813     138.6142    683.94802   0.80644797 
   11880    3126012.5    500.68455   -335.71883    164.55249    137.10456    138.55888    335.71883   0.80684127 
   11900    3124997.3    500.82979   -164.25507     164.5883    137.06889    138.51977    164.25507   0.80723458 
   11920    3124956.6    501.22088   -465.43357    164.62412    137.09785    138.45858    465.43357   0.80762788 
   11940    3126236.7    499.99374   -594.42228    164.65994    137.07387    138.50939    594.42228   0.80802119 
   11960    3126742.5    500.32589   -560.53817    164.69576    137.06959      138.506    560.53817   0.80841449 
   11980    3125419.5    501.28569   -316.29794    164.73158    137.01843    138.46897    316.29794    0.8088078 
   12000    3124359.8    501.04971   -253.98065     164.7674    136.93156    138.47972    253.98065    0.8092011 
   12020    3125326.4    500.71104    -250.8232    164.80322    136.90677    138.51754     250.8232   0.80959441 
   12040    3126705.2    501.07627   -350.47054    164.83904    136.91931    138.53585    350.47054   0.80998771 
   12060    3125421.3     500.1624   -507.49979    164.87486    136.88416    138.48443    507.49979   0.81038102 
   12080    3124967.8    501.49815   -304.52288    164.91068    136.90009    138.41815    304.52288   0.81077432 
   12100    3125712.7    500.22451   -360.47525    164.94649    136.88239    138.43898    360.47525   0.81116762 
   12120    3125948.1    500.55472   -408.70941    164.98231    136.85051    138.45159    408.70941   0.81156093 
   12140    3125045.3    500.33847   -547.63227    165.01813    136.80599     138.4266    547.63227   0.81195423 
   12160    3125526.7    500.76968   -402.53603    165.05395    136.81116    138.41264    402.53603   0.81234754 
   12180    3124540.9    500.97963   -88.000902    165.08977    136.75627    138.39449    88.000902   0.81274084 
   12200    3125128.9    499.45587   -238.62571    165.12559    136.76168    138.38504    238.62571   0.81313415 
   12220    3127438.7    500.23282   -562.51905    165.16141    136.80221    138.41626    562.51905   0.81352745 
   12240    3126389.1    499.78592   -444.14033    165.19723     136.7183    138.42471    444.14033   0.81392076 
   12260    3124836.5    499.72574   -207.61706    165.23305    136.64704    138.39811    207.61706   0.81431406 
   12280    3127432.5    498.93515    -498.8028    165.26887    136.65023    138.47983     498.8028   0.81470737 
   12300    3128738.7    499.80021   -342.67496    165.30468    136.69725       138.46    342.67496   0.81510067 
   12320    3129331.1    499.95161   -466.33394     165.3405    136.66946    138.48438    466.33394   0.81549398 
   12340    3128772.4     499.2361   -691.56055    165.37632    136.64082    138.45868    691.56055   0.81588728 
   12360    3128572.1    500.19714   -377.42575    165.41214    136.58778    138.47358    377.42575   0.81628058 
   12380    3129529.1    500.38303   -620.24497    165.44796    136.55471    138.51949    620.24497   0.81667389 
   12400    3128188.4    500.46257   -561.85795    165.48378    136.50002    138.48564    561.85795   0.81706719 
   12420    3126818.2    499.56358   -381.94657     165.5196     136.5001    138.39495    381.94657    0.8174605 
   12440    3127505.7    499.88749   -127.18475    165.55542    136.49279    138.40284    127.18475    0.8178538 
   12460    3129327.5    500.88197    -383.2672    165.59124    136.50624    138.43986     383.2672   0.81824711 
   12480    3128202.2    501.48975   -207.91115    165.62706    136.51647    138.34979    207.91115   0.81864041 
   12500    3129740.3      500.844   -430.37465    165.66287     136.5349     138.3692    430.37465   0.81903372 
   12520      3130772    499.79836   -556.67083    165.69869    136.52253    138.39743    556.67083   0.81942702 
   12540      3130368    501.09107   -382.87994    165.73451    136.51267    138.35966    382.87994   0.81982033 
   12560    3131269.1    501.01151   -405.90955    165.77033    136.55716     138.3245    405.90955   0.82021363 
   12580    3130998.2    501.11549   -330.21966    165.80615    136.56349    138.27624    330.21966   0.82060693 
   12600      3132431    501.81874   -358.65181    165.84197    136.61157    138.26096    358.65181   0.82100024 
   12620    3133301.9    500.27598   -550.99769    165.87779    136.65214    138.22849    550.99769   0.82139354 
   12640    3134390.2    501.21713   -706.30809    165.91361    136.71425    138.18385    706.30809   0.82178685 
   12660    3134379.7    500.73578   -281.90067    165.94943    136.69283    138.17521    281.90067   0.82218015 
   12680    3134173.8    500.73863   -80.240426    165.98525    136.74077    138.08788    80.240426   0.82257346 
   12700    3136623.2    500.97359    -381.9418    166.02106    136.79033    138.11593     381.9418   0.82296676 
   12720    3138516.5     499.6173   -394.47832    166.05688    136.81357    138.14601    394.47832   0.82336007 
   12740    3138119.5    501.14903    -281.6982     166.0927    136.84072    138.07135     281.6982   0.82375337 
   12760    3138076.9      500.592   -302.88966    166.12852    136.79144    138.08943    302.88966   0.82414668 
   12780    3138589.7    500.06394   -309.21776    166.16434    136.77682    138.09699    309.21776   0.82453998 
   12800      3140846    500.42156   -472.53119    166.20016    136.82291    138.11995    472.53119   0.82493329 
   12820    3141377.3    499.56211   -735.32138    166.23598    136.84329    138.09297    735.32138   0.82532659 
   12840    3140389.1    499.96889   -497.88021     166.2718    136.78679     138.0768    497.88021   0.82571989 
   12860    3140658.4    500.21707   -215.18293    166.30762    136.77806    138.06771    215.18293    0.8261132 
   12880    3141313.5     499.3536   -334.28014    166.34344    136.78706    138.05769    334.28014    0.8265065 
   12900    3141709.3    500.51628    -260.8667    166.37925    136.75681    138.07589     260.8667   0.82689981 
   12920    3141666.4    500.56944    -405.9112    166.41507    136.72694    138.07444     405.9112   0.82729311 
   12940    3143428.5     500.5398   -608.88398    166.45089    136.75542     138.0934    608.88398   0.82768642 
   12960    3142679.8    498.84632   -566.88519    166.48671    136.73232    138.05412    566.88519   0.82807972 
   12980    3140674.2    499.12675    -46.52844    166.52253    136.64026    138.02928     46.52844   0.82847303 
   13000      3140633    500.01948   -179.01798    166.55835    136.66105    137.97678    179.01798   0.82886633 
   13020    3141643.4    499.37035    -382.7148    166.59417    136.64528    138.00742     382.7148   0.82925964 
[...]
   76760    4231787.5    498.87256   -218.96004    280.74932    120.03633    125.57188    218.96004    2.0827214 
   76780    4231882.6    498.80024   -312.62487    280.78514    120.04897    125.54547    312.62487    2.0831147 
   76800    4229938.4    499.00989   -89.333639    280.82096    119.97724     125.5468    89.333639     2.083508 
   76820    4228371.8    499.36611    139.08976    280.85678    119.98109    125.48027   -139.08976    2.0839013 
   76840    4229824.3    499.44559    5.2219174     280.8926    119.99785    125.48984   -5.2219174    2.0842946 
   76860    4231297.1    499.08073   -145.86871    280.92842     119.9766    125.53976    145.86871    2.0846879 
   76880    4232119.4    498.77573    -334.3312    280.96424    119.96624      125.559     334.3312    2.0850812 
   76900    4234529.5    499.70231    -379.4706    281.00005    119.98746    125.59226     379.4706    2.0854745 
   76920    4233986.1    501.23512   -154.48873    281.03587    119.94617    125.60337    154.48873    2.0858678 
   76940    4234264.8    500.95496   -29.942335    281.07169    119.92784    125.61482    29.942335    2.0862611 
   76960    4234227.6    500.52646   -114.40406    281.10751     119.9042    125.62247    114.40406    2.0866544 
   76980    4234506.8      500.337   -92.008682    281.14333    119.88193    125.63809    92.008682    2.0870477 
   77000    4236609.7    500.19206   -53.756941    281.17915    119.90055    125.66496    53.756941     2.087441 
   77020    4235671.7    500.82448    -166.9665    281.21497    119.88036    125.64228     166.9665    2.0878343 
   77040    4235311.7    500.42576   -212.23257    281.25079     119.8962    125.59901    212.23257    2.0882276 
   77060    4237088.9    499.47336   -335.42188    281.28661     119.9311    125.59915    335.42188    2.0886209 
   77080    4237919.5    499.88475   -141.27428    281.32243    119.95733    125.58031    141.27428    2.0890142 
   77100    4237926.7    499.38374    -106.8163    281.35824    119.90524    125.61908     106.8163    2.0894075 
   77120      4236397    500.43439   -232.74153    281.39406    119.91005    125.55272    232.74153    2.0898008 
   77140    4235781.8    500.45729   -157.52914    281.42988    119.88477    125.54498    157.52914    2.0901941 
   77160    4238425.7    499.44693    -304.4523     281.4657    119.93718    125.55247     304.4523    2.0905874 
   77180    4238361.7    499.01821   -146.65836    281.50152    119.94274    125.52878    146.65836    2.0909808 
   77200    4238212.4    499.47233   -59.658095    281.53734    119.97833    125.47116    59.658095    2.0913741 
   77220      4240593    499.33046   -61.591513    281.57316    120.02131    125.48071    61.591513    2.0917674 
   77240    4241645.1    499.78765    -52.95625    281.60898    120.00772    125.51009     52.95625    2.0921607 
   77260    4243168.1    499.05179   -231.96011     281.6448    120.06396    125.48039    231.96011     2.092554 
   77280    4244365.1    499.82844   -230.25396    281.68062    120.10154    125.46055    230.25396    2.0929473 
   77300    4245123.9    498.32224   -239.56393    281.71643    120.12504    125.44249    239.56393    2.0933406 
   77320    4247325.4    499.64932    -175.9231    281.75225    120.17745    125.43685     175.9231    2.0937339 
   77340    4248118.5    499.67837   -355.73468    281.78807    120.21355    125.40665    355.73468    2.0941272 
   77360    4250047.5    499.50625   -194.25544    281.82389    120.23622    125.42401    194.25544    2.0945205 
   77380      4251142    499.95856   -143.71943    281.85971    120.22619    125.45083    143.71943    2.0949138 
   77400    4250480.1    500.52612   -30.044119    281.89553    120.21183    125.43034    30.044119    2.0953071 
   77420    4250966.9    499.95208   -36.767532    281.93135    120.23734    125.40215    36.767532    2.0957004 
   77440    4252836.5    499.75006   -175.14534    281.96717     120.2507    125.42743    175.14534    2.0960937 
   77460    4253620.4    499.02541   -84.178011    282.00299    120.26243    125.42239    84.178011     2.096487 
   77480    4254560.3    500.21205   -260.36124    282.03881      120.256    125.44088    260.36124    2.0968803 
   77500    4256314.6    500.23894   -261.26026    282.07462    120.28415     125.4473    261.26026    2.0972736 
   77520    4257193.5     500.0493    -221.8555    282.11044    120.27428    125.46756     221.8555    2.0976669 
   77540    4256434.4    499.30146    -287.8106    282.14626    120.25063    125.45393     287.8106    2.0980602 
   77560    4256060.4    500.90214    5.2183011    282.18208    120.25273     125.4248   -5.2183011    2.0984535 
   77580    4257195.1    499.77242   -5.8147471     282.2179    120.24352    125.45193    5.8147471    2.0988468 
   77600    4258692.5      499.867   -213.17216    282.25372    120.27834    125.44379    213.17216    2.0992401 
   77620    4258031.2    499.79902   -426.48933    282.28954    120.29459    125.39146    426.48933    2.0996335 
   77640    4257150.5    499.61882   -170.82378    282.32536    120.23312    125.41371    170.82378    2.1000268 
   77660    4259161.1    499.32591   -66.089562    282.36118    120.24965    125.43978    66.089562    2.1004201 
   77680    4259431.4    498.72358    53.453694      282.397     120.2689    125.41174   -53.453694    2.1008134 
   77700    4260055.9    497.55715   -278.90926    282.43281    120.26052    125.42297    278.90926    2.1012067 
   77720    4264482.1    499.58047    -434.3876    282.46863    120.32915    125.46576     434.3876       2.1016 
   77740    4264933.1    500.65846   -299.60381    282.50445    120.33718    125.45474    299.60381    2.1019933 
   77760      4264485    498.73146   -168.69771    282.54027     120.3269    125.43638    168.69771    2.1023866 
   77780    4263878.1    499.63704   -183.19973    282.57609     120.3181     125.4118    183.19973    2.1027799 
   77800      4266683     498.5509   -231.24145    282.61191    120.34962    125.44553    231.24145    2.1031732 
   77820    4267415.2    497.74509   -173.70683    282.64773    120.34847    125.45236    173.70683    2.1035665 
   77840    4265685.2     499.3815   -198.21195    282.68355    120.29258    125.44387    198.21195    2.1039598 
   77860    4268248.1    497.91705   -193.27835    282.71937    120.34481    125.44886    193.27835    2.1043531 
   77880    4269941.8    498.95282   -172.90818    282.75519    120.36563    125.46104    172.90818    2.1047464 
   77900    4270785.5    498.98969   -130.79844      282.791    120.35103    125.48516    130.79844    2.1051397 
   77920    4271487.2    499.73628   -146.61497    282.82682    120.34668    125.49442    146.61497     2.105533 
   77940    4271795.9    500.14985   -42.888598    282.86264    120.32404    125.51121    42.888598    2.1059263 
   77960    4272991.9    499.63715    50.112481    282.89846    120.31449    125.54041   -50.112481    2.1063196 
   77980    4273069.6    501.59244   -185.30389    282.93428    120.33148    125.50908    185.30389    2.1067129 
   78000    4275887.7    501.42129   -226.01339     282.9701    120.35477    125.55165    226.01339    2.1071062 
   78020    4276909.9    501.04219   -367.52443    283.00592     120.3734    125.54634    367.52443    2.1074995 
   78040    4278162.3    500.56978   -321.87536    283.04174    120.40511    125.53414    321.87536    2.1078928 
   78060    4278052.8    500.45695   -345.61866    283.07756    120.38595    125.53502    345.61866    2.1082862 
   78080    4277557.5     500.2382   -277.74807    283.11338     120.3428    125.54961    277.74807    2.1086795 
   78100    4278309.4    501.34758   -74.704063    283.14919    120.39565    125.50067    74.704063    2.1090728 
   78120    4278790.4    500.41971   -166.30694    283.18501    120.37828    125.51702    166.30694    2.1094661 
   78140    4280671.9    500.92017   -212.57174    283.22083    120.39258    125.54142    212.57174    2.1098594 
   78160    4280726.2    500.55922   -197.45631    283.25665    120.42104    125.49746    197.45631    2.1102527 
   78180    4281163.7    501.08266   -113.58506    283.29247    120.42377    125.49157    113.58506     2.110646 
   78200    4284016.3    500.47038   0.88332798    283.32829    120.46403    125.51736  -0.88332798    2.1110393 
   78220    4285687.6    500.17507   -153.93776    283.36411    120.48014    125.53366    153.93776    2.1114326 
   78240    4286570.4    500.50861    -121.6364    283.39993    120.52742     125.4944     121.6364    2.1118259 
   78260    4285465.1    500.19276   -91.173488    283.43575    120.55232    125.42028    91.173488    2.1122192 
   78280    4286904.7    499.63962   -28.934011    283.47157    120.56539    125.43296    28.934011    2.1126125 
   78300    4290191.7    499.33358   -200.05207    283.50738     120.5868    125.49099    200.05207    2.1130058 
   78320    4289219.5    499.72241   -224.58991     283.5432    120.57543    125.45853    224.58991    2.1133991 
   78340    4289243.2    498.96893   -324.52871    283.57902    120.57137     125.4476    324.52871    2.1137924 
   78360      4289470    499.45889   -97.042621    283.61484    120.60811    125.40018    97.042621    2.1141857 
   78380      4289915    499.36535   -64.073394    283.65066    120.62711     125.3776    64.073394     2.114579 
   78400    4291144.8    499.59391   -79.819317    283.68648    120.60791    125.41768    79.819317    2.1149723 
   78420      4292750    499.89587   -281.08802     283.7223    120.64022    125.41515    281.08802    2.1153656 
   78440      4292599    498.85288   -186.41703    283.75812    120.65151    125.38318    186.41703    2.1157589 
   78460    4293062.2    499.15616   -54.590339    283.79394    120.63459    125.39847    54.590339    2.1161522 
   78480    4294344.3    499.73944   -90.461324    283.82976    120.69275    125.35964    90.461324    2.1165456 
   78500    4295102.4    499.81626   -313.40152    283.86557    120.72794    125.32941    313.40152    2.1169389 
   78520    4295583.2      499.493    -345.1905    283.90139    120.75785    125.29659     345.1905    2.1173322 
   78540    4295601.2    500.38329   -106.44195    283.93721    120.74704    125.29252    106.44195    2.1177255 
   78560    4297988.6    500.47178   -255.39869    283.97303     120.7712    125.32127    255.39869    2.1181188 
   78580      4298159    500.76484   -233.46769    284.00885    120.76166    125.32033    233.46769    2.1185121 
   78600      4295309    500.91525   -165.33927    284.04467    120.72299    125.26154    165.33927    2.1189054 
   78620    4295140.5    499.71068   -82.901497    284.08049    120.74308    125.22001    82.901497    2.1192987 
   78640    4297302.4    500.23144    -76.77784    284.11631    120.81412    125.19358     76.77784     2.119692 
   78660    4297560.1     500.3977   -109.87497    284.15213    120.81049    125.18906    109.87497    2.1200853 
   78680    4296139.8     501.0187   -72.145423    284.18795    120.75057    125.19401    72.145423    2.1204786 
   78700    4294478.7    500.77767   -115.91773    284.22376    120.73616    125.14477    115.91773    2.1208719 
   78720    4296892.4    500.88313   -131.70026    284.25958    120.80334     125.1297    131.70026    2.1212652 
   78740    4298228.7    500.00533   -71.331397     284.2954    120.83075    125.12446    71.331397    2.1216585 
   78760      4298738    500.85402   -30.374863    284.33122    120.85336    125.10011    30.374863    2.1220518 
   78780    4301176.7    500.85897   -355.97744    284.36704    120.88303    125.12459    355.97744    2.1224451 
   78800    4301217.4    500.17115   -462.34725    284.40286    120.85756    125.13639    462.34725    2.1228384 
   78820    4298464.1      499.309   -205.83143    284.43868    120.82437    125.07488    205.83143    2.1232317 
   78840    4294944.5    499.49077    130.19385     284.4745    120.74944    125.03428   -130.19385     2.123625 
   78860    4296388.6    499.14961   -72.270428    284.51032    120.74385    125.06637    72.270428    2.1240183 
   78880    4297444.7    499.44989   -221.39621    284.54614    120.75486    125.06995    221.39621    2.1244116 
   78900    4298773.1    499.54848    -234.8117    284.58195    120.75661    125.09105     234.8117    2.1248049 
   78920    4299224.9    499.99935    -214.4313    284.61777    120.74488    125.10061     214.4313    2.1251983 
   78940    4298787.4    499.84879   -114.55791    284.65359    120.73433    125.08307    114.55791    2.1255916 
   78960    4298529.5    499.69128   -81.442919    284.68941    120.72794    125.06645    81.442919    2.1259849 
   78980    4296901.2    500.27277    49.039324    284.72523    120.74869    124.98186   -49.039324    2.1263782 
   79000    4297942.3    499.68228   -135.48662    284.76105    120.75172    124.99328    135.48662    2.1267715 
   79020    4299971.9    500.41992   -183.57973    284.79687    120.76356    125.02432    183.57973    2.1271648 
   79040    4301341.4    500.45468   -334.66842    284.83269     120.7539    125.05842    334.66842    2.1275581 
   79060    4299825.2    499.87553   -183.11456    284.86851    120.67131    125.08416    183.11456    2.1279514 
   79080    4299614.7    500.69861   -211.45752    284.90433    120.66498    125.06887    211.45752    2.1283447 
   79100    4299973.5    501.00648   -31.271334    284.94014    120.65758    125.07127    31.271334     2.128738 
   79120    4301867.6    500.83717   -89.368445    284.97596    120.68547    125.08171    89.368445    2.1291313 
   79140    4299974.9    500.26837   -36.108084    285.01178    120.63826    125.05989    36.108084    2.1295246 
   79160    4300695.2    500.09214   -195.19918     285.0476    120.60182    125.10291    195.19918    2.1299179 
   79180    4301368.7    500.92005   -161.69046    285.08342    120.55662    125.15368    161.69046    2.1303112 
   79200    4301169.7    500.82211   -322.33705    285.11924    120.50059    125.19036    322.33705    2.1307045 
   79220    4301487.1    501.85192    -261.2496    285.15506    120.49348    125.19126     261.2496    2.1310978 
   79240    4302644.8    501.44299   -228.52523    285.19088    120.51993    125.18174    228.52523    2.1314911 
   79260    4303261.9    500.99496   -71.557941     285.2267    120.52772    125.17588    71.557941    2.1318844 
   79280    4301857.7    501.37913   -14.938212    285.26252    120.48894    125.15959    14.938212    2.1322777 
   79300    4301648.7    500.31817   -129.20155    285.29833     120.4716    125.15581    129.20155     2.132671 
   79320    4302433.1    499.13282   -207.67705    285.33415    120.46357    125.17126    207.67705    2.1330643 
   79340    4304067.5    499.61875   -235.37435    285.36997    120.47911    125.18695    235.37435    2.1334576 
   79360    4302964.1    500.84649   -40.593696    285.40579    120.42094    125.19959    40.593696     2.133851 
   79380    4304392.6    500.19381    21.956121    285.44161    120.39051     125.2571   -21.956121    2.1342443 
   79400    4305903.3    500.34507   -360.67986    285.47743    120.39286    125.28289    360.67986    2.1346376 
   79420    4305675.5     499.8261   -246.61829    285.51325    120.37736    125.27668    246.61829    2.1350309 
   79440    4304475.4    498.97574    -79.60034    285.54907    120.33921    125.26575     79.60034    2.1354242 
   79460    4305245.5    499.02047   -87.672913    285.58489    120.31052    125.30231    87.672913    2.1358175 
   79480    4305144.7    500.50974   -153.54615    285.62071    120.30775    125.28655    153.54615    2.1362108 
   79500    4305968.2    500.25661   -248.88452    285.65652    120.28577     125.3177    248.88452    2.1366041 
   79520    4305822.3    500.00361   -272.22034    285.69234    120.23837    125.34714    272.22034    2.1369974 
   79540    4304201.3    499.73201    39.230491    285.72816    120.25649    125.26537   -39.230491    2.1373907 
   79560    4306323.7    499.48459    40.469941    285.76398    120.23959    125.32903   -40.469941     2.137784 
   79580    4305521.6    500.91591   -136.55728     285.7998    120.25185    125.27721    136.55728    2.1381773 
   79600    4306924.4    500.41065   -224.37552    285.83562    120.27815    125.27493    224.37552    2.1385706 
   79620    4308495.2    500.77163         -193    285.87144    120.27557     125.3076          193    2.1389639 
   79640    4307524.9    500.13203   -116.05785    285.90726    120.25283    125.28738    116.05785    2.1393572 
   79660    4306597.6    500.06514    -35.60591    285.94308     120.2181     125.2809     35.60591    2.1397505 
   79680    4308757.5     500.7461   -322.65638     285.9789    120.24539    125.29958    322.65638    2.1401438 
   79700    4310031.6    501.09814   -298.35629    286.01471    120.23176    125.33515    298.35629    2.1405371 
   79720    4311160.9    500.99844   -292.05287    286.05053    120.23974    125.34396    292.05287    2.1409304 
   79740      4311998    500.57323   -193.78288    286.08635    120.24167     125.3506    193.78288    2.1413237 
   79760    4310761.5    500.76352   -39.034554    286.12217    120.14024    125.40475    39.034554     2.141717 
   79780    4312091.4    501.66238   -155.37055    286.15799    120.16684    125.39998    155.37055    2.1421103 
   79800    4311971.2    500.66562   -325.65842    286.19381    120.18201    125.36496    325.65842    2.1425037 
   79820      4312116    500.16469   -72.581476    286.22963    120.20725    125.32715    72.581476     2.142897 
   79840    4312196.8    500.16665    73.529166    286.26545    120.20393    125.31728   -73.529166    2.1432903 
   79860    4313827.9    500.86956   -111.82154    286.30127    120.20846    125.34428    111.82154    2.1436836 
   79880    4313364.9    499.57573   -171.46034    286.33709     120.2309    125.29175    171.46034    2.1440769 
   79900    4314542.6    500.10561    -506.3249     286.3729    120.21918    125.32251     506.3249    2.1444702 
   79920    4312562.1    499.60491   -249.16758    286.40872     120.2195    125.24898    249.16758    2.1448635 
   79940    4311297.2    499.97773   -95.599379    286.44454    120.20443    125.21228    95.599379    2.1452568 
   79960    4314131.2    499.37358   -86.161845    286.48036    120.18777    125.29629    86.161845    2.1456501 
   79980    4316240.7    498.30388   -72.318494    286.51618    120.20266    125.32636    72.318494    2.1460434 
   80000    4315800.2    498.70792   -187.87223      286.552    120.18797    125.31321    187.87223    2.1464367 
Loop time of 12171.3 on 64 procs for 80000 steps with 212040 atoms

Performance: 0.568 ns/day, 42.261 hours/ns, 6.573 timesteps/s
99.8% CPU use with 64 MPI tasks x 1 OpenMP threads

MPI task timing breakdown:
Section |  min time  |  avg time  |  max time  |%varavg| %total
---------------------------------------------------------------
Pair    | 1855.9     | 3389.1     | 4668.8     |1174.3 | 27.84
Bond    | 202.13     | 316.33     | 382.2      | 258.2 |  2.60
Kspace  | 441.41     | 1787.5     | 3430.1     |1725.9 | 14.69
Neigh   | 6358.8     | 6377.5     | 6396.2     |  14.4 | 52.40
Comm    | 187.32     | 207.81     | 231.66     |  86.3 |  1.71
Output  | 4.2064     | 4.2783     | 4.3955     |   1.2 |  0.04
Modify  | 69.571     | 80.421     | 86.972     |  40.1 |  0.66
Other   |            | 8.395      |            |       |  0.07

Nlocal:        3313.12 ave        4849 max         297 min
Histogram: 1 3 3 3 7 5 11 6 11 14
Nghost:        16576.4 ave       22814 max        7692 min
Histogram: 3 4 6 7 5 7 3 10 5 14
Neighs:    1.69468e+06 ave 2.88194e+06 max       74570 min
Histogram: 3 6 4 5 9 6 4 11 5 11

Total # of neighbors = 1.0845941e+08
Ave neighs/atom = 511.50448
Ave special neighs/atom = 5.9990568
Neighbor list builds = 80000
Dangerous builds not checked
Total wall time: 3:22:55
