LAMMPS (29 Oct 2020)
OMP_NUM_THREADS environment is not set. Defaulting to 1 thread. (../comm.cpp:94)
  using 1 OpenMP thread(s) per MPI task
####################################################
#    This program is free software: you can redistribute it and/or modify
#    it under the terms of the GNU General Public License as published by
#    the Free Software Foundation, either version 3 of the License, or
#    (at your option) any later version.
#
#    This program is distributed in the hope that it will be useful,
#    but WITHOUT ANY WARRANTY; without even the implied warranty of
#    MERCHANTABILITY or FITNESS FOR A PARTICULAR PURPOSE.  See the
#    GNU General Public License for more details.


units		real        ## defines the units style used herein. More information: https://docs.lammps.org/units.html
atom_style	full        ## defines the atom style used herein. More information: https://docs.lammps.org/atom_style.html

# Styles
pair_style      lj/cut/coul/long 15.0 10.0      ## sets the formula(s) LAMMPS uses to compute pairwise interactions; here, lennard-jones (LJ) with long-range Coulomb interaction. More: https://docs.lammps.org/pair_lj_cut_coul.html
pair_modify     shift no                        ## the shift keyword determines whether a Lennard-Jones potential is shifted at its cutoff to 0.0. More: https://docs.lammps.org/pair_modify.html
kspace_style    pppm 1.0e-4                     ## defines a long-range solver for LAMMPS to compute long-range Coulombic interactions. Note: requires use of a matching pair style, i.e. PPPM with coul/long. More: https://docs.lammps.org/kspace_style.html
bond_style      harmonic                        ## defined based off the forcefield used to construct the system; models the atoms' interactions
angle_style     harmonic
dihedral_style  opls
improper_style  cvff
special_bonds   lj 0 0 1 coul 0 0 1

read_data       300K_TRP.lmps      ## input lammps datafile, equilibriated until structure nears experimental properties
Reading data file ...
  orthogonal box = (228.75783 228.75783 228.75783) to (371.24217 371.24217 371.24217)
  4 by 4 by 4 MPI processor grid
  reading atoms ...
  212040 atoms
  reading velocities ...
  212040 velocities
  scanning bonds ...
  2 = max bonds/atom
  scanning angles ...
  6 = max angles/atom
  scanning dihedrals ...
  15 = max dihedrals/atom
  scanning impropers ...
  2 = max impropers/atom
  reading bonds ...
  236020 bonds
  reading angles ...
  399920 angles
  reading dihedrals ...
  615800 dihedrals
  reading impropers ...
  127960 impropers
Finding 1-2 1-3 1-4 neighbors ...
  special bond factors lj:    0.0      0.0      1.0     
  special bond factors coul:  0.0      0.0      1.0     
     4 = max # of 1-2 neighbors
    10 = max # of 1-3 neighbors
    14 = max # of special neighbors
  special bonds CPU = 1.394 seconds
  read_data CPU = 3.370 seconds

dielectric      1.0
neighbor    	1.0 bin
neigh_modify	delay 0 every 1 check no        ## this is to make sure that the neighbor list is updated every timestep, and the atoms don't get lost as the system is being deformed ##

timestep	    1.0                             ## unit = fs, per "real" unit style
run_style       verlet                          ## defines algorithm used for simulation computation; verlet integration is a numerical method used to integrate Newton's equations of motion.

variable stress equal press*-1                         ## computes stress as the negative of press values
variable engStrain equal (lx-91.07191)/91.07191      ## computes engineering strain; lx_0 must be found and inputted manually (for now)

thermo		    20                                                               ## output log data (headers in thermo_style), recorded at every timestep in numList.txt
thermo_style    custom step vol temp press lx ly lz v_stress v_engStrain         ## data headers of output log file. More: https://docs.lammps.org/thermo_style.html

################# Deformation ##################

fix 1 all npt temp 300 300 100 y 1 1 100.0 z 1 1 100.0      ## stress normal to the x direction can vary; external pressure (y and z) = 1atm ##

fix 2 all deform 1 x scale 2.0 remap x                      ## sets a uniaxial (x-direction) deformation in motion, scaling a set amount (here, 4.0x) the initial length


################# Dumping ##################

reset_timestep 0

dump dump2 all custom 2000 sim.lammpstrj id mol type q xs ys zs ix iy iz

restart 4000 PMP.restart

run 		40000              ## this depends on the overall strain rate, where strain rate = deformScale / runTimeSteps (consider units!)
PPPM initialization ...
WARNING: System is not charge neutral, net charge = 0.034008 (../kspace.cpp:313)
  using 12-bit tables for long-range coulomb (../kspace.cpp:328)
  G vector (1/distance) = 0.20820024
  grid = 40 40 40
  stencil order = 5
  estimated absolute RMS force accuracy = 0.028258287
  estimated relative force accuracy = 8.5098991e-05
  using double precision FFTW3
  3d grid and FFT values/proc = 3375 1000
Neighbor list info ...
  update every 1 steps, delay 0 steps, check no
  max neighbors/atom: 2000, page size: 100000
  master list distance cutoff = 16
  ghost atom cutoff = 16
  binsize = 8, bins = 18 18 18
  1 neighbor lists, perpetual/occasional/extra = 1 0 0
  (1) pair lj/cut/coul/long, perpetual
      attributes: half, newton on
      pair build: half/bin/newton
      stencil: half/bin/3d/newton
      bin: standard
Per MPI rank memory allocation (min/avg/max) = 36.55 | 39.27 | 40.16 Mbytes
Step Volume Temp Press Lx Ly Lz v_stress v_engStrain 
       0    2892686.5    300.30718     14304.26    142.48434    142.48434    142.48434    -14304.26   0.56452561 
      20    2914867.2    306.28622    2109.2606    142.55558    143.00554     142.9821   -2109.2606   0.56530787 
      40    2937960.9     305.2242    1046.6332    142.62682     143.5479     143.4987   -1046.6332   0.56609013 
      60    2933522.3    305.55986   -246.86919    142.69806    143.41514    143.34294    246.86919    0.5668724 
      80    2927219.5    305.58472   -89.855339     142.7693    143.20005    143.17832    89.855339   0.56765466 
     100    2928809.9    305.49511   -263.60394    142.84055    143.20944    143.17528    263.60394   0.56843692 
     120    2926655.3    302.66156   -793.04308    142.91179    143.14784    143.06016    793.04308   0.56921919 
     140    2920835.1    304.03936   -816.51261    142.98303    142.96018    142.89185    816.51261   0.57000145 
     160    2916379.1    303.50118   -634.56999    143.05427    142.82344    142.73933    634.56999   0.57078371 
     180    2919289.7    304.38501   -960.06847    143.12551    142.86449    142.76963    960.06847   0.57156597 
     200    2915444.6    303.28655   -288.11816    143.19676    142.71321    142.66171    288.11816   0.57234824 
     220    2916681.3    303.04947   -555.77411      143.268    142.73046    142.63402    555.77411    0.5731305 
     240    2917473.7    302.69339    214.29852    143.33924    142.69486    142.63743   -214.29852   0.57391276 
     260    2912063.7      302.432    325.44925    143.41048    142.50327    142.49353   -325.44925   0.57469503 
     280    2913761.9    301.25462    498.87303    143.48173    142.55628    142.45284   -498.87303   0.57547729 
     300    2914554.9    301.49999   -567.81582    143.55297    142.56447    142.41272    567.81582   0.57625955 
     320    2914448.8    302.02811    545.33947    143.62421    142.52144    142.37986   -545.33947   0.57704181 
     340    2913687.5    302.01597   -638.42764    143.69545    142.48238    142.31111    638.42764   0.57782408 
     360    2914466.3    300.72556   -234.98971    143.76669    142.48024    142.28074    234.98971   0.57860634 
     380    2918699.1     301.1393   -241.15013    143.83794    142.53871    142.35839    241.15013    0.5793886 
     400    2918519.3    300.30751   -520.22759    143.90918    142.50201    142.31578    520.22759   0.58017087 
     420    2919702.1    300.96246   -389.36053    143.98042    142.51932    142.28573    389.36053   0.58095313 
     440    2919215.9    300.63081    207.96697    144.05166    142.48678    142.22416   -207.96697   0.58173539 
     460    2920945.5    300.33577   -166.95281    144.12291    142.48931    142.23555    166.95281   0.58251765 
     480      2920465    299.72883   -255.81557    144.19415     142.4521    142.17902    255.81557   0.58329992 
     500    2922066.7    300.14966   -260.68775    144.26539    142.44874     142.1901    260.68775   0.58408218 
     520    2922177.8    299.49421   -10.623439    144.33663    142.39819    142.17578    10.623439   0.58486444 
     540    2925985.4     299.5089   -451.77679    144.40787    142.45207    142.23698    451.77679    0.5856467 
     560    2926535.5    299.72645   -314.01199    144.47912    142.40585    142.23972    314.01199   0.58642897 
     580    2924946.2    299.67166    -114.3428    144.55036    142.35619    142.14198     114.3428   0.58721123 
     600      2927391    299.54495   -105.74269     144.6216    142.37924    142.16769    105.74269   0.58799349 
     620    2928855.2    299.61347   -455.64183    144.69284    142.36079    142.18719    455.64183   0.58877576 
     640    2928805.1    298.74837    -50.41361    144.76408     142.2893    142.18618     50.41361   0.58955802 
     660    2929534.6    299.31554   -277.59167    144.83533    142.27788    142.16306    277.59167   0.59034028 
     680    2928718.3    299.34167   -99.420121    144.90657    142.24311    142.08828    99.420121   0.59112254 
     700      2928834      299.526   -368.59328    144.97781    142.23516    142.03201    368.59328   0.59190481 
     720    2929002.2    299.62984   -194.08043    145.04905    142.19979    142.00573    194.08043   0.59268707 
     740    2929301.7    300.13503   -404.60247     145.1203    142.18487    141.96542    404.60247   0.59346933 
     760    2929395.9     300.3898    76.801452    145.19154    142.16049    141.92465   -76.801452    0.5942516 
     780      2930446    300.39952   -375.52542    145.26278    142.15026    141.91612    375.52542   0.59503386 
     800    2930947.2    300.44073    109.97557    145.33402    142.11488    141.90613   -109.97557   0.59581612 
     820    2929494.7    300.50904   -325.77831    145.40526    142.01679    141.86423    325.77831   0.59659838 
     840    2930472.6     301.0574   -151.66583    145.47651    142.00734    141.85153    151.66583   0.59738065 
     860      2930821    300.37206   -199.85541    145.54775     141.9854    141.82086    199.85541   0.59816291 
     880    2930796.6     300.2569   -71.619174    145.61899    141.93226    141.80337    71.619174   0.59894517 
     900    2931468.5    300.03637   -156.26848    145.69023    141.91594    141.78283    156.26848   0.59972744 
     920    2934268.5    301.45626    -211.5899    145.76148    141.94275    141.82209     211.5899    0.6005097 
     940    2933506.8    299.75828    -188.1814    145.83272    141.85001    141.80866     188.1814   0.60129196 
     960    2934171.9    300.11169   -234.62635    145.90396    141.83536     141.7862    234.62635   0.60207422 
     980    2935577.5    300.28485   -266.76425     145.9752     141.8322    141.78805    266.76425   0.60285649 
    1000    2934853.6     300.5475   -43.799594    146.04644    141.76637    141.74972    43.799594   0.60363875 
    1020    2937487.5    300.62393   -318.83881    146.11769    141.77144     141.8027    318.83881   0.60442101 
    1040    2936787.6    299.41216   -188.27259    146.18893    141.70562    141.76564    188.27259   0.60520328 
    1060    2939390.2    300.07158   -361.38908    146.26017    141.74578    141.78198    361.38908   0.60598554 
    1080    2939629.9    299.74961   -228.19679    146.33141     141.7161    141.75418    228.19679    0.6067678 
    1100    2939883.7    300.19239   -276.74377    146.40265    141.68786    141.72568    276.74377   0.60755006 
    1120    2940325.6    299.93081    54.542718     146.4739    141.65761    141.70829   -54.542718   0.60833233 
    1140    2942049.5    299.81655   -356.77577    146.54514    141.66601    141.71404    356.77577   0.60911459 
    1160    2941684.5    299.62508    -211.6282    146.61638     141.6413    141.65233     211.6282   0.60989685 
    1180    2941506.6    299.65789   -243.00276    146.68762    141.59481    141.62145    243.00276   0.61067911 
    1200    2943727.9    299.50706   -411.57573    146.75887    141.56597    141.68845    411.57573   0.61146138 
    1220    2943008.2    299.56379   -366.99057    146.83011    141.53672    141.61434    366.99057   0.61224364 
    1240    2944674.8    299.16665   -411.90568    146.90135    141.58217    141.58035    411.90568    0.6130259 
    1260    2944159.6    299.31452   -431.45917    146.97259    141.53327    141.53585    431.45917   0.61380817 
    1280    2945424.6     299.5092   -134.92822    147.04383    141.51046    141.55087    134.92822   0.61459043 
    1300    2944582.7    300.09455   -359.02175    147.11508    141.44465     141.5077    359.02175   0.61537269 
    1320    2945621.1    299.20929   -206.79127    147.18632    141.43658    141.49715    206.79127   0.61615495 
    1340    2947023.3    299.04615   -338.91702    147.25756    141.42923    141.50337    338.91702   0.61693722 
    1360    2946574.7    300.19589   -125.93872     147.3288    141.40901    141.43364    125.93872   0.61771948 
    1380    2948100.2     300.0418   -356.32782    147.40005    141.42775    141.41973    356.32782   0.61850174 
    1400    2947614.6    299.96151   -253.73579    147.47129    141.38929    141.36657    253.73579   0.61928401 
    1420    2949077.5    300.73729   -498.58284    147.54253    141.42778    141.32996    498.58284   0.62006627 
    1440    2948644.1    300.47349   -316.23586    147.61377    141.42577      141.243    316.23586   0.62084853 
    1460    2949548.9    300.21462   -173.26653    147.68501    141.42646    141.21749    173.26653   0.62163079 
    1480    2950667.6    299.82687   -163.91789    147.75626    141.38829    141.24106    163.91789   0.62241306 
    1500      2952203    301.07965   -440.66473     147.8275    141.41213    141.22264    440.66473   0.62319532 
    1520    2950468.5    300.74972   -197.09204    147.89874    141.33688    141.14679    197.09204   0.62397758 
    1540    2951639.2    300.13189   -388.58082    147.96998    141.31391    141.15775    388.58082   0.62475985 
    1560    2953686.2    300.56069   -380.66393    148.04122    141.31121    141.19037    380.66393   0.62554211 
    1580    2954320.7    300.96958   -455.48254    148.11247     141.3055    141.15847    455.48254   0.62632437 
    1600      2954326    300.08581   -233.47941    148.18371    141.28026    141.11607    233.47941   0.62710663 
    1620    2956008.8    300.21628   -353.70152    148.25495    141.28724    141.12163    353.70152    0.6278889 
    1640    2956205.1    300.07435   -335.36958    148.32619    141.28552    141.06493    335.36958   0.62867116 
    1660    2956854.2    300.55905   -472.00822    148.39744     141.2563    141.05734    472.00822   0.62945342 
    1680    2957423.6    300.32656   -433.48875    148.46868    141.20919    141.06385    433.48875   0.63023568 
    1700    2957541.6    300.05693   -365.75942    148.53992    141.16915    141.04181    365.75942   0.63101795 
    1720    2959254.2    300.04947     -230.229    148.61116     141.1825     141.0425      230.229   0.63180021 
    1740    2959331.1    299.82707   -358.12722     148.6824    141.15354     141.0075    358.12722   0.63258247 
    1760    2959643.3    299.13325   -243.40123    148.75365    141.15781    140.95057    243.40123   0.63336474 
    1780    2959591.5    299.18385   -400.49808    148.82489    141.11633    140.92205    400.49808     0.634147 
    1800      2961754     300.3844    -402.8237    148.89613    141.12333    140.95055     402.8237   0.63492926 
    1820    2961382.5    299.67252   -370.74833    148.96737    141.14289    140.84594    370.74833   0.63571152 
    1840    2962630.3    299.87435   -370.06953    149.03861     141.1267    140.85409    370.06953   0.63649379 
    1860    2962907.5    300.12192   -611.29954    149.10986    141.06804    140.85852    611.29954   0.63727605 
    1880    2964679.2    299.34293   -508.99189     149.1811    141.07266    140.87082    508.99189   0.63805831 
    1900    2965317.7    300.79452   -469.90531    149.25234    141.06293    140.84362    469.90531   0.63884058 
    1920    2963744.9     300.6817   -102.24544    149.32358    140.99655      140.768    102.24544   0.63962284 
    1940    2965103.1    299.91213   -179.68928    149.39483    140.99163    140.77026    179.68928    0.6404051 
    1960    2965426.2    300.47349    -109.4518    149.46607    140.99896    140.71118     109.4518   0.64118736 
    1980      2966480    300.38103   -362.26011    149.53731    140.98829    140.70477    362.26011   0.64196963 
    2000    2965813.4    299.95724   -224.14603    149.60855    140.92784    140.66648    224.14603   0.64275189 
    2020    2967631.3    300.09543    -581.0008    149.67979    140.95167    140.66191     581.0008   0.64353415 
    2040    2968043.6    300.19914    -428.3157    149.75104    140.87585    140.69021     428.3157   0.64431642 
    2060    2970793.4    300.37372    -700.0712    149.82228     140.8779    140.75155     700.0712   0.64509868 
    2080    2970711.5    299.92592   -401.59299    149.89352    140.82269    140.73593    401.59299   0.64588094 
    2100    2970595.4    299.93439     -426.642    149.96476    140.78731    140.69891      426.642    0.6466632 
    2120    2972004.2    298.97632   -421.36489    150.03601    140.73396    140.75214    421.36489   0.64744547 
    2140    2971878.1     299.4987   -410.60313    150.10725    140.69963     140.7137    410.60313   0.64822773 
    2160    2972008.2    300.02834   -299.62973    150.17849       140.66    140.69273    299.62973   0.64900999 
    2180      2972152    300.03795   -410.73893    150.24973    140.61014    140.68269    410.73893   0.64979225 
    2200    2972711.2     299.0935   -375.56764    150.32097    140.59381    140.65881    375.56764   0.65057452 
    2220    2973480.7    300.59768   -584.95573    150.39222    140.55906    140.66334    584.95573   0.65135678 
    2240    2974508.1    299.56002   -640.99846    150.46346     140.5309     140.6735    640.99846   0.65213904 
    2260    2973077.3    300.34318   -489.32134     150.5347    140.46434    140.60589    489.32134   0.65292131 
    2280    2973986.5     299.8581   -353.14205    150.60594    140.47678     140.5699    353.14205   0.65370357 
    2300    2975009.2    299.69009   -564.68659    150.67718    140.44048    140.58808    564.68659   0.65448583 
    2320    2975224.5    299.91233   -411.62073    150.74843     140.3911    140.58125    411.62073   0.65526809 
    2340    2975158.7    300.81652   -427.74962    150.81967    140.35949    140.54337    427.74962   0.65605036 
    2360    2975209.7    300.74753   -345.01068    150.89091    140.32754    140.51141    345.01068   0.65683262 
    2380    2975965.1    301.21048   -469.21873    150.96215    140.32383    140.48447    469.21873   0.65761488 
    2400      2976917    300.97742   -420.46089     151.0334    140.32837    140.45858    420.46089   0.65839715 
    2420      2977245     300.5533    -571.9357    151.10464    140.28283     140.4534     571.9357   0.65917941 
    2440    2977170.8    299.83111   -356.37226    151.17588    140.21196    140.45467    356.37226   0.65996167 
    2460    2979239.8    300.54431   -513.84896    151.24712    140.21387    140.48417    513.84896   0.66074393 
    2480    2979886.1    299.47025   -398.71719    151.31836    140.21249    140.44986    398.71719    0.6615262 
    2500      2979591    299.84473   -328.00063    151.38961    140.14693    140.43553    328.00063   0.66230846 
    2520    2979721.8    299.63235   -278.03116    151.46085    140.09006    140.43262    278.03116   0.66309072 
    2540    2981426.7    299.29111   -201.70687    151.53209    140.10284     140.4341    201.70687   0.66387299 
    2560      2982238    300.20371   -150.88339    151.60333     140.0647    140.44454    150.88339   0.66465525 
    2580    2983702.2    300.11637   -387.01708    151.67458     140.0127    140.49966    387.01708   0.66543751 
    2600    2983982.6    299.88496   -367.85379    151.74582    139.99079    140.46887    367.85379   0.66621977 
    2620    2985828.4    299.80421   -502.52566    151.81706    140.00699    140.47355    502.52566   0.66700204 
    2640    2987329.5    300.05325   -645.33677     151.8883    140.00228    140.48297    645.33677    0.6677843 
    2660    2986593.1    300.29612   -631.36719    151.95954    140.00098     140.3838    631.36719   0.66856656 
    2680    2988622.3    299.67809   -585.56558    152.03079    140.00177    140.41257    585.56558   0.66934882 
    2700    2989040.7     299.8768   -572.06077    152.10203    139.95629    140.41205    572.06077   0.67013109 
    2720    2988949.4    300.16385   -346.22763    152.17327    139.92155    140.37688    346.22763   0.67091335 
    2740    2988987.9    300.39017   -298.67949    152.24451    139.90576    140.32883    298.67949   0.67169561 
    2760    2990633.6    300.81392   -248.70021    152.31575    139.90305    140.34314    248.70021   0.67247788 
    2780    2991056.4    299.05875   -366.19435      152.387    139.88474    140.31573    366.19435   0.67326014 
    2800    2991793.3    300.24712    -477.0844    152.45824    139.89256    140.27687     477.0844    0.6740424 
    2820    2991766.1    300.12166   -374.52675    152.52948    139.89486    140.20777    374.52675   0.67482466 
    2840    2991935.2    299.97764   -361.51852    152.60072    139.86595     140.1792    361.51852   0.67560693 
    2860    2992441.8    299.95043   -412.81505    152.67197    139.84748    140.15602    412.81505   0.67638919 
    2880    2993134.9    299.88538   -380.74653    152.74321    139.82522    140.14541    380.74653   0.67717145 
    2900      2993930    300.34261   -347.31297    152.81445    139.84089    140.10159    347.31297   0.67795372 
    2920    2993715.2    299.98378   -307.12995    152.88569    139.83928    140.02786    307.12995   0.67873598 
    2940    2993940.6    299.38126   -328.92794    152.95693      139.783    140.02954    328.92794   0.67951824 
    2960    2994955.3    299.07566    -542.7395    153.02818    139.80865    139.98609     542.7395    0.6803005 
    2980    2996479.1    299.85957   -629.41892    153.09942    139.81617    139.98462    629.41892   0.68108277 
    3000    2995543.1    299.23369   -541.17583    153.17066    139.77171    139.92029    541.17583   0.68186503 
    3020    2995129.5    299.96342   -371.37618     153.2419    139.73318    139.87449    371.37618   0.68264729 
    3040    2997976.2    299.33978   -502.24207    153.31314    139.76642     139.9091    502.24207   0.68342956 
    3060    2998767.8    300.02366    -552.6681    153.38439    139.76902    139.87844     552.6681   0.68421182 
    3080    2999919.3    300.02839   -594.48933    153.45563    139.76866    139.86754    594.48933   0.68499408 
    3100    3000101.3    300.03309   -459.03679    153.52687    139.73709    139.84271    459.03679   0.68577634 
    3120    3000328.6    299.76088   -318.74605    153.59811    139.73565    139.78988    318.74605   0.68655861 
    3140    3002335.4    300.41347    -436.9919    153.66936    139.79165    139.76252     436.9919   0.68734087 
    3160    3003140.1    300.06598   -584.17469     153.7406    139.80218    139.72466    584.17469   0.68812313 
    3180    3003363.3    301.13338   -329.52149    153.81184    139.79245    139.68005    329.52149    0.6889054 
    3200    3003206.9    300.77392   -438.51539    153.88308    139.73331    139.66721    438.51539   0.68968766 
    3220    3005023.5     301.1706   -346.21743    153.95432    139.71722     139.7031    346.21743   0.69046992 
    3240    3005988.2     300.0721   -322.13394    154.02557    139.69286    139.70767    322.13394   0.69125218 
    3260    3006684.4    301.99725   -360.11944    154.09681    139.68017    139.68811    360.11944   0.69203445 
    3280    3007329.4    300.19371   -324.73502    154.16805     139.6556    139.67808    324.73502   0.69281671 
    3300    3008221.5    301.24361   -400.89836    154.23929    139.64626    139.66432    400.89836   0.69359897 
    3320    3010195.2    300.63571   -553.95652    154.31054     139.6841    139.65359    553.95652   0.69438123 
    3340    3010081.8    300.76823   -687.48376    154.38178    139.63859    139.62938    687.48376    0.6951635 
    3360    3009717.4    300.84034   -422.09108    154.45302    139.58316    139.60349    422.09108   0.69594576 
    3380      3010934    300.25652   -408.97156    154.52426    139.58912    139.58957    408.97156   0.69672802 
    3400    3011018.6    300.77235   -427.32378     154.5955    139.50668    139.61162    427.32378   0.69751029 
    3420    3010905.2    301.05656   -458.22215    154.66675    139.45499    139.59378    458.22215   0.69829255 
    3440    3011709.9    300.54253   -648.92512    154.73799    139.45627    139.56553    648.92512   0.69907481 
    3460    3012437.6    300.18578   -548.02829    154.80923    139.44037    139.55092    548.02829   0.69985707 
    3480    3012308.3    301.14411   -604.99364    154.88047    139.40944    139.51168    604.99364   0.70063934 
    3500    3012910.8    300.43318   -564.61208    154.95171    139.41641    139.46845    564.61208    0.7014216 
    3520    3014225.2    300.48709   -555.71666    155.02296    139.39582    139.48578    555.71666   0.70220386 
    3540    3014648.6    300.76255   -535.33191     155.0942    139.37215    139.46497    535.33191   0.70298613 
    3560    3016019.6    300.16251   -476.50587    155.16544    139.36165    139.47484    476.50587   0.70376839 
    3580    3015959.1    299.99611   -475.80302    155.23668    139.30027    139.46947    475.80302   0.70455065 
    3600    3016845.3    300.44789   -513.48779    155.30793    139.27816    139.46858    513.48779   0.70533291 
    3620    3016576.6    299.74777   -442.20931    155.37917    139.22252    139.44793    442.20931   0.70611518 
    3640    3017332.5    300.01853   -445.25321    155.45041    139.16562    139.47595    445.25321   0.70689744 
    3660    3019082.4    299.84703   -514.56284    155.52165    139.19721    139.46125    514.56284    0.7076797 
    3680    3019041.9    300.78933   -491.39438    155.59289    139.13917    139.45368    491.39438   0.70846197 
    3700    3019801.4    300.53059    -574.9137    155.66414     139.0906    139.47361     574.9137   0.70924423 
    3720    3020938.6    299.84936   -438.90278    155.73538    139.09604    139.45685    438.90278   0.71002649 
    3740    3021422.8    299.91203   -498.53926    155.80662    139.05892    139.45264    498.53926   0.71080875 
    3760    3021476.9    299.77724   -424.88705    155.87786    139.03604    139.41434    424.88705   0.71159102 
    3780    3023194.5    299.96252   -454.82901    155.94911    139.05679    139.40906    454.82901   0.71237328 
    3800    3023876.6    299.18018   -525.40699    156.02035    139.02414    139.40958    525.40699   0.71315554 
    3820    3022891.1    299.62553   -419.06367    156.09159    138.97344    139.35135    419.06367    0.7139378 
    3840    3022244.9    300.65983   -358.25983    156.16283    138.96159    139.26988    358.25983   0.71472007 
    3860    3023550.9    299.22245   -478.19489    156.23407    138.98011    139.24797    478.19489   0.71550233 
    3880    3024360.3    299.67092   -605.94712    156.30532     138.9666     139.2353    605.94712   0.71628459 
    3900      3024806    299.23556    -525.6078    156.37656    138.94371    139.21531     525.6078   0.71706686 
    3920    3025763.8    299.57255   -583.66662     156.4478    138.96427    139.17538    583.66662   0.71784912 
    3940    3026338.3    300.30975   -434.91527    156.51904    138.96375    139.13896    434.91527   0.71863138 
    3960    3026777.5    300.49429   -492.47486    156.59028    138.94176    139.11786    492.47486   0.71941364 
    3980    3025757.8    299.31035   -520.66627    156.66153     138.8946    139.05495    520.66627   0.72019591 
    4000    3026663.3     300.6516   -346.35817    156.73277    138.91825    139.00967    346.35817   0.72097817 
    4020    3026944.1      299.554   -483.73903    156.80401     138.9306    138.94705    483.73903   0.72176043 
    4040    3028105.2    300.07733   -512.58524    156.87525     138.9171    138.95072    512.58524    0.7225427 
    4060      3029196    299.58634   -608.34552     156.9465    138.92505    138.92973    608.34552   0.72332496 
    4080    3029453.3    299.03107   -651.01113    157.01774    138.91388    138.88966    651.01113   0.72410722 
    4100      3030561    299.79295   -468.38572    157.08898    138.88275    138.90856    468.38572   0.72488948 
    4120    3031149.8     299.6968   -574.11522    157.16022    138.90544    138.84988    574.11522   0.72567175 
    4140    3033183.5    300.39674   -527.99342    157.23146     138.9373    138.84824    527.99342   0.72645401 
    4160      3033183    300.14751   -498.30289    157.30271    138.89238    138.83022    498.30289   0.72723627 
    4180    3034784.1     299.6337   -502.52312    157.37395    138.92532    138.80769    502.52312   0.72801854 
    4200    3035135.2    299.57926   -512.40267    157.44519    138.91864    138.76761    512.40267    0.7288008 
    4220    3035605.6    298.86428   -446.69547    157.51643     138.8918    138.75315    446.69547   0.72958306 
    4240    3036968.3    299.50625   -488.99194    157.58768    138.88772    138.75676    488.99194   0.73036532 
    4260    3037603.1    299.23129   -638.25795    157.65892    138.81826    138.79247    638.25795   0.73114759 
    4280    3039220.2    300.11083   -674.46226    157.73016    138.85288    138.76902    674.46226   0.73192985 
    4300    3039796.2    299.75595   -763.36792     157.8014    138.80488    138.78064    763.36792   0.73271211 
    4320    3040833.6    300.07226   -657.53706    157.87264    138.77287    138.79735    657.53706   0.73349437 
    4340    3041472.8    300.10695   -495.74938    157.94389    138.75132    138.78546    495.74938   0.73427664 
    4360    3041549.9    300.03945   -522.01358    158.01513     138.6958    138.78194    522.01358    0.7350589 
    4380    3042722.8    299.63054   -354.78556    158.08637    138.65017    138.81857    354.78556   0.73584116 
    4400    3044086.5    300.62867   -473.00345    158.15761    138.64442    138.82398    473.00345   0.73662343 
    4420    3045230.7    299.42506   -590.17945    158.22885    138.62772    138.83035    590.17945   0.73740569 
    4440    3045428.3    300.31905   -547.74871     158.3001      138.589    138.81565    547.74871   0.73818795 
    4460    3044968.7    300.29914   -662.36274    158.37134    138.54941    138.77191    662.36274   0.73897021 
    4480    3045060.1    300.29222   -539.16489    158.44258    138.53235    138.73075    539.16489   0.73975248 
    4500    3044889.8    301.13304    -579.0119    158.51382    138.47662    138.71646     579.0119   0.74053474 
    4520    3046115.6    301.20108   -519.62368    158.58507    138.47647     138.7101    519.62368     0.741317 
    4540    3046274.8    300.72575   -438.77089    158.65631    138.46248    138.66907    438.77089   0.74209927 
    4560      3046166    300.60229   -346.39683    158.72755     138.4234    138.64102    346.39683   0.74288153 
    4580    3048162.7    299.90516   -389.12644    158.79879    138.42245     138.6706    389.12644   0.74366379 
    4600    3048373.7    299.92633   -406.97179    158.87003    138.41727    138.62321    406.97179   0.74444605 
    4620    3049478.1      300.774   -436.60942    158.94128    138.40381    138.62475    436.60942   0.74522832 
    4640    3050194.5    300.62501   -648.98781    159.01252     138.4076     138.5914    648.98781   0.74601058 
    4660    3051391.5    300.00496   -742.04353    159.08376    138.43277     138.5585    742.04353   0.74679284 
    4680    3052284.1    299.74409   -673.02968      159.155      138.431    138.53876    673.02968   0.74757511 
    4700    3053241.1    300.42933   -656.88614    159.22624    138.44042    138.51077    656.88614   0.74835737 
    4720    3053787.9    299.59846   -470.76519    159.29749    138.42633    138.48771    470.76519   0.74913963 
    4740    3054470.3    299.59701   -504.17463    159.36873    138.44913    138.43394    504.17463   0.74992189 
    4760    3055744.9    300.21645   -445.09163    159.43997     138.4721    138.40685    445.09163   0.75070416 
    4780    3056054.2    300.40744    -425.3009    159.51121    138.45856    138.37258     425.3009   0.75148642 
    4800    3056885.1    300.15413   -453.51486    159.58246     138.4706    138.33637    453.51486   0.75226868 
    4820    3057732.2    299.70611   -466.32876     159.6537      138.502    138.28161    466.32876   0.75305095 
    4840    3058330.3    299.51197   -387.39079    159.72494    138.48313    138.26581    387.39079   0.75383321 
    4860    3058239.3    300.67055     -362.015    159.79618    138.44705    138.23607      362.015   0.75461547 
    4880    3059103.9    300.19412   -535.58411    159.86742    138.43568    138.22487    535.58411   0.75539773 
    4900    3060732.5    299.51967    -664.0422    159.93867    138.42042     138.2521     664.0422      0.75618 
    4920    3061809.2    299.92957   -769.06078    160.00991    138.40116    138.25839    769.06078   0.75696226 
    4940    3060712.6     300.6143    -550.3705    160.08115    138.34872    138.19974     550.3705   0.75774452 
    4960    3061514.8    300.63229     -575.891    160.15239    138.34526    138.17792      575.891   0.75852678 
    4980    3061836.3    300.03018    -712.6519    160.22364    138.34467    138.13157     712.6519   0.75930905 
    5000    3062949.4    299.44165   -721.81869    160.29488    138.34424     138.1208    721.81869   0.76009131 
    5020    3063605.9    299.40321   -679.03067    160.36612    138.28785    138.14534    679.03067   0.76087357 
    5040    3063183.9    300.08514   -612.10437    160.43736     138.2057    138.14704    612.10437   0.76165584 
    5060    3063937.9    299.48099   -586.86749     160.5086    138.19229    138.13313    586.86749    0.7624381 
    5080    3064798.1    299.84803   -643.81145    160.57985     138.1987     138.1042    643.81145   0.76322036 
    5100    3065772.9    300.08675    -642.0727    160.65109    138.16156    138.12398     642.0727   0.76400262 
    5120    3065020.8    299.84444   -717.79871    160.72233    138.11716    138.07326    717.79871   0.76478489 
    5140    3065383.7    299.65856    -557.0673    160.79357    138.07141    138.07416     557.0673   0.76556715 
    5160      3065422     300.2813   -485.44136    160.86481    138.01975    138.06639    485.44136   0.76634941 
    5180    3065997.7    300.62408   -497.72435    160.93606    137.96964    138.08132    497.72435   0.76713168 
    5200    3066780.2    299.98374   -482.41196     161.0073    137.95437    138.07073    482.41196   0.76791394 
    5220    3068250.9    299.60911   -609.36123    161.07854    137.95999    138.07022    609.36123    0.7686962 
    5240    3069137.2     299.9151   -680.93977    161.14978    137.97121    138.03782    680.93977   0.76947846 
    5260    3068990.9    300.20037   -689.89906    161.22103    137.94759    137.99387    689.89906   0.77026073 
    5280    3069891.2    300.14741    -646.9173    161.29227    137.94059    137.98039     646.9173   0.77104299 
    5300    3069451.7    299.67846   -602.85949    161.36351    137.89921     137.9411    602.85949   0.77182525 
    5320    3070337.1    300.17987   -652.40564    161.43475    137.88939    137.92982    652.40564   0.77260752 
    5340    3070987.4    300.23537   -530.46232    161.50599    137.90427     137.8833    530.46232   0.77338978 
    5360    3072670.2    300.12399   -606.33788    161.57724    137.89347    137.90883    606.33788   0.77417204 
    5380    3073449.8     300.7081   -608.40773    161.64848     137.8733    137.90319    608.40773    0.7749543 
    5400    3074264.4    300.36995   -584.55091    161.71972    137.91981    137.83249    584.55091   0.77573657 
    5420    3075707.6    300.31242   -547.36151    161.79096    137.94894    137.80736    547.36151   0.77651883 
    5440    3076460.5    300.32259   -699.63985    161.86221    137.89215    137.83717    699.63985   0.77730109 
    5460    3077041.1    300.45331   -568.89363    161.93345    137.84173    137.85293    568.89363   0.77808335 
    5480    3079447.5    300.01234   -487.42356    162.00469    137.85604    137.88576    487.42356   0.77886562 
    5500    3081059.8     300.1859     -466.256    162.07593    137.84305    137.91031      466.256   0.77964788 
    5520      3080739     299.4315   -454.12076    162.14717    137.81431    137.86411    454.12076   0.78043014 
    5540    3083292.6    299.94677   -622.44062    162.21842    137.86529    137.86679    622.44062   0.78121241 
    5560    3083760.6    299.38392    -523.6828    162.28966    137.79831    137.89417     523.6828   0.78199467 
    5580    3084603.2    299.79592    -699.1416     162.3609    137.75621    137.91347     699.1416   0.78277693 
    5600    3084761.5    299.49778   -691.09948    162.43214    137.73115    137.88514    691.09948   0.78355919 
    5620      3087577    299.69506   -726.24922    162.50338    137.76127    137.92032    726.24922   0.78434146 
    5640    3088086.2    299.21939   -625.81164    162.57463    137.75294    137.89095    625.81164   0.78512372 
    5660    3087232.6    300.23155   -648.72645    162.64587    137.66743    137.87804    648.72645   0.78590598 
    5680    3088585.2    299.80896   -584.02146    162.71711    137.66242    137.88308    584.02146   0.78668825 
    5700    3090109.7    300.28883   -496.83638    162.78835    137.64681     137.9064    496.83638   0.78747051 
    5720    3089299.5    300.33627   -557.47429     162.8596    137.59061    137.86622    557.47429   0.78825277 
    5740    3089603.2     300.3077    -476.1957    162.93084    137.55409    137.85608     476.1957   0.78903503 
    5760    3091746.5    300.82325   -764.58816    163.00208    137.54607    137.89945    764.58816    0.7898173 
    5780    3093567.6    300.12315   -667.21266    163.07332    137.52999    137.93653    667.21266   0.79059956 
    5800    3092186.8    300.48526   -652.72488    163.14456    137.51711    137.82766    652.72488   0.79138182 
    5820    3092442.3     300.4048   -565.01375    163.21581    137.46744    137.82867    565.01375   0.79216409 
    5840    3094279.6    300.75078   -459.48602    163.28705    137.47345    137.84436    459.48602   0.79294635 
    5860    3093060.8    300.60372   -563.22172    163.35829    137.43803    137.76546    563.22172   0.79372861 
    5880    3095241.8    299.61132   -673.40355    163.42953    137.46331    137.77716    673.40355   0.79451087 
    5900    3095231.1    300.73677   -673.38106    163.50077    137.43946    137.74055    673.38106   0.79529314 
    5920    3095692.1    300.21269   -572.40121    163.57202     137.4201    137.72046    572.40121    0.7960754 
    5940    3096168.3    300.29367   -553.88872    163.64326    137.39379    137.70805    553.88872   0.79685766 
    5960    3096598.8    300.22039   -486.47969     163.7145     137.3969    137.66415    486.47969   0.79763992 
    5980    3097123.8    299.73857   -350.48814    163.78574    137.39845    137.62605    350.48814   0.79842219 
    6000    3096585.8    299.38918    -385.4511    163.85699    137.35828    137.58254     385.4511   0.79920445 
    6020    3097173.1    299.84382    -415.7199    163.92823     137.3561    137.55101     415.7199   0.79998671 
    6040    3098253.1    299.67185   -582.06263    163.99947    137.37297    137.52231    582.06263   0.80076898 
    6060    3099381.2    300.16739     -482.049    164.07071    137.35134     137.5343      482.049   0.80155124 
    6080    3099239.7    299.99158   -514.43051    164.14195    137.29994     137.5198    514.43051    0.8023335 
    6100    3101497.1    300.65939   -527.23651     164.2132    137.33877    137.52136    527.23651   0.80311576 
    6120    3101334.4     300.2648   -454.53493    164.28444    137.30077    137.49256    454.53493   0.80389803 
    6140    3101695.8    299.88741   -424.42884    164.35568    137.23405     137.5158    424.42884   0.80468029 
    6160    3102343.7    299.61343   -313.84395    164.42692    137.23084    137.48814    313.84395   0.80546255 
    6180    3103185.4    299.74551   -386.76327    164.49817    137.18851    137.50831    386.76327   0.80624482 
    6200      3103628    299.40216   -508.19121    164.56941    137.16485    137.49209    508.19121   0.80702708 
    6220    3105168.7    299.75705   -709.69754    164.64065    137.17232    137.49333    709.69754   0.80780934 
    6240    3105933.7    299.37161   -785.30416    164.71189    137.14776    137.49235    785.30416    0.8085916 
    6260    3106697.5    299.78929   -693.89599    164.78313    137.13386    137.48063    693.89599   0.80937387 
    6280    3107284.8    299.35187   -728.11356    164.85438    137.10637    137.47476    728.11356   0.81015613 
    6300    3107817.8    300.06736   -459.30044    164.92562    137.05954     137.4859    459.30044   0.81093839 
    6320    3108069.8    300.39686   -359.75857    164.99686     137.0145    137.48286    359.75857   0.81172066 
    6340    3108332.3    300.31127    -386.3804     165.0681    136.98679    137.46292     386.3804   0.81250292 
    6360    3111002.1     299.7067   -627.57433    165.13934    137.03426      137.474    627.57433   0.81328518 
    6380    3112733.8    299.47487    -627.8344    165.21059    137.05919    137.46621     627.8344   0.81406744 
    6400      3113544    299.54073   -745.10511    165.28183    137.04266     137.4593    745.10511   0.81484971 
    6420    3113008.7    299.66018   -571.56153    165.35307    137.00848    137.41072    571.56153   0.81563197 
    6440    3114401.5    299.36292    -410.0748    165.42431    137.03587    137.38553     410.0748   0.81641423 
    6460    3113745.2    299.23828   -426.47511    165.49556    136.99177    137.34165    426.47511    0.8171965 
    6480    3113328.7    298.78996    -557.4303     165.5668     136.9525    137.30355     557.4303   0.81797876 
    6500      3115323    299.17486   -527.09086    165.63804    136.99824    137.28655    527.09086   0.81876102 
    6520    3115478.1    298.94656   -580.30353    165.70928    136.95039    137.28231    580.30353   0.81954328 
    6540    3116349.8    298.83871   -687.09503    165.78052    136.94876    137.26335    687.09503   0.82032555 
    6560    3117079.6    299.61772   -720.93224    165.85177    136.91533    137.27002    720.93224   0.82110781 
    6580    3118489.3    300.32485   -575.20168    165.92301    136.89494    137.29359    575.20168   0.82189007 
    6600    3118960.9    299.62526   -599.46755    165.99425    136.88039    137.27001    599.46755   0.82267233 
    6620    3118447.7    299.34056    -515.5918    166.06549    136.87137    137.19758     515.5918    0.8234546 
    6640    3119730.5    299.86024   -475.85418    166.13674     136.8379    137.22872    475.85418   0.82423686 
    6660    3120889.2    300.09495   -368.64248    166.20798    136.85836    137.20032    368.64248   0.82501912 
    6680    3120088.5    299.93895   -405.30799    166.27922    136.83442    137.13035    405.30799   0.82580139 
    6700      3120589    299.89278   -319.51801    166.35046    136.78082    137.14733    319.51801   0.82658365 
    6720    3121722.8    300.97089   -365.21076     166.4217    136.73698     137.1824    365.21076   0.82736591 
    6740    3122447.4    300.88115   -378.98729    166.49295     136.7552    137.13725    378.98729   0.82814817 
    6760    3123240.7    300.21046   -515.70703    166.56419    136.76909     137.0995    515.70703   0.82893044 
    6780    3123877.8    300.36326   -559.01815    166.63543    136.75421    137.08375    559.01815    0.8297127 
    6800    3124623.9    299.95496   -588.28523    166.70667    136.74199    137.07015    588.28523   0.83049496 
    6820    3124927.8    300.53372   -609.73431    166.77791    136.72473    137.04222    609.73431   0.83127723 
    6840    3125489.4    300.28027   -582.97529    166.84916     136.6813    137.05185    582.97529   0.83205949 
    6860    3126282.8    300.75966   -383.94695     166.9204    136.67687    137.03258    383.94695   0.83284175 
    6880    3126357.2    300.11538   -316.38236    166.99164    136.71737    136.93679    316.38236   0.83362401 
    6900      3127391    299.96328   -341.91845    167.06288    136.68213    136.95896    341.91845   0.83440628 
    6920    3129002.2    299.73158   -443.73571    167.13413    136.65672    136.99658    443.73571   0.83518854 
    6940    3129602.2    299.94386   -458.96275    167.20537    136.66022    136.96097    458.96275    0.8359708 
    6960      3130911    300.21385   -492.09681    167.27661    136.67156    136.94852    492.09681   0.83675307 
    6980    3131816.8    300.06463   -559.76753    167.34785    136.62161    136.97988    559.76753   0.83753533 
    7000    3132235.8     299.7294   -547.89444    167.41909    136.63672    136.92477    547.89444   0.83831759 
    7020    3131214.4    299.92637    -511.1425    167.49034     136.5592    136.89957     511.1425   0.83909985 
    7040      3131718    300.19433   -504.36986    167.56158    136.57551    136.84703    504.36986   0.83988212 
    7060    3133444.1    300.09283   -527.32548    167.63282    136.63028     136.8094    527.32548   0.84066438 
    7080    3134527.2    299.36852   -489.36858    167.70406    136.63866    136.79017    489.36858   0.84144664 
    7100    3134588.5    300.11127   -343.65277    167.77531    136.62032    136.75311    343.65277    0.8422289 
    7120    3135128.4    299.39616   -350.52765    167.84655    136.62527    136.71365    350.52765   0.84301117 
    7140    3136768.7    300.27654   -471.37653    167.91779    136.66928    136.68311    471.37653   0.84379343 
    7160    3136518.3    300.04599   -549.52348    167.98903    136.64533    136.63819    549.52348   0.84457569 
    7180      3136661     300.7954   -484.32949    168.06027    136.63533    136.59648    484.32949   0.84535796 
    7200    3137598.3    299.60909   -470.55004    168.13152    136.65884     136.5559    470.55004   0.84614022 
    7220    3138462.1    300.17523   -329.67095    168.20276    136.65166    136.54281    329.67095   0.84692248 
    7240    3139058.1    300.28915   -413.10962      168.274    136.62524    136.53732    413.10962   0.84770474 
    7260    3140285.4    300.55502   -374.89238    168.34524    136.62031    136.53784    374.89238   0.84848701 
    7280    3141215.1    300.02096   -382.35649    168.41648    136.60869    136.53209    382.35649   0.84926927 
    7300    3140987.1    299.27922   -462.68695    168.48773    136.57681    136.49631    462.68695   0.85005153 
    7320    3142082.4    299.41323    -355.0492    168.55897    136.56672    136.49628     355.0492    0.8508338 
    7340    3143125.3    299.40894   -399.74383    168.63021    136.58707    136.46357    399.74383   0.85161606 
    7360    3143595.8     299.7595   -349.74957    168.70145    136.54757    136.46582    349.74957   0.85239832 
    7380    3143922.7    299.72719   -406.37876     168.7727    136.53925    136.43071    406.37876   0.85318058 
    7400    3145715.1    300.63458   -443.39252    168.84394    136.53867    136.45148    443.39252   0.85396285 
    7420    3147784.8    300.10374   -413.35259    168.91518    136.54341    136.47892    413.35259   0.85474511 
    7440    3146793.8    299.69914   -406.98717    168.98642    136.46812    136.45369    406.98717   0.85552737 
    7460    3147836.8    299.49455   -384.93163    169.05766    136.45894    136.45056    384.93163   0.85630964 
    7480    3149467.3    299.94389   -444.87252    169.12891    136.47381    136.44887    444.87252    0.8570919 
    7500    3149763.2     299.6305   -530.82059    169.20015    136.46572    136.41232    530.82059   0.85787416 
    7520    3150737.2     299.3812   -728.28278    169.27139      136.436    136.42678    728.28278   0.85865642 
    7540    3151678.8    299.40054   -575.88371    169.34263     136.4028    136.44334    575.88371   0.85943869 
    7560    3153367.9    299.32583    -664.3264    169.41387    136.42044    136.44142     664.3264   0.86022095 
    7580    3154055.5    300.25627   -531.00985    169.48512    136.39687    136.43738    531.00985   0.86100321 
    7600    3153982.4    300.25422   -545.70337    169.55636    136.37782    136.39594    545.70337   0.86178547 
    7620    3155329.1    299.86742   -497.64723     169.6276    136.33988    136.43483    497.64723   0.86256774 
    7640    3156049.9    299.63408   -632.29677    169.69884    136.33389    136.41469    632.29677      0.86335 
    7660    3156042.8    300.51601   -670.35642    169.77009    136.29867    136.39238    670.35642   0.86413226 
    7680    3157427.9    300.62559    -599.3436    169.84133    136.30301    136.39066     599.3436   0.86491453 
    7700    3157478.6    300.83754   -534.94792    169.91257    136.26739     136.3713    534.94792   0.86569679 
    7720    3157946.8    300.58203   -514.03128    169.98381    136.21317    136.38862    514.03128   0.86647905 
    7740    3158596.7    300.73424   -425.33588    170.05505    136.18092    136.39183    425.33588   0.86726131 
    7760    3159474.9    300.33984   -468.55447     170.1263    136.16142    136.39216    468.55447   0.86804358 
    7780    3160185.2    300.41021   -429.92241    170.19754    136.12479    136.40241    429.92241   0.86882584 
    7800    3160470.8    299.77062    -520.4193    170.26878    136.09649    136.38601     520.4193    0.8696081 
    7820      3162870    299.97277   -524.89463    170.34002    136.10362    136.42532    524.89463   0.87039037 
    7840    3163199.4    299.39506   -672.32253    170.41127     136.1035     136.3826    672.32253   0.87117263 
    7860    3164573.1     299.8397   -659.20546    170.48251    136.10095    136.38737    659.20546   0.87195489 
    7880    3164700.2    299.86242   -634.26787    170.55375    136.07558    136.36129    634.26787   0.87273715 
    7900      3164569    300.11247   -442.31524    170.62499    136.05474    136.31959    442.31524   0.87351942 
    7920    3165257.9    300.04394   -421.60534    170.69623     136.0396    136.30753    421.60534   0.87430168 
    7940    3166341.6    299.53478   -506.21177    170.76748    136.05158     136.2853    506.21177   0.87508394 
    7960    3168300.2    300.35818   -368.72087    170.83872    136.06792    136.29636    368.72087   0.87586621 
    7980    3168521.5    299.49614   -416.62255    170.90996    136.05167    136.26534    416.62255   0.87664847 
    8000      3169342    299.71022   -517.44664     170.9812     136.0301    136.26544    517.44664   0.87743073 
    8020    3170151.3    299.82249   -509.72165    171.05244    136.04879    136.22475    509.72165   0.87821299 
    8040    3170968.3    299.50935   -570.05902    171.12369    136.02895      136.223    570.05902   0.87899526 
    8060      3170755    299.90791   -635.51686    171.19493    136.00809    136.17803    635.51686   0.87977752 
    8080    3171087.2    300.20854   -579.27775    171.26617    136.01927    136.12446    579.27775   0.88055978 
    8100    3171449.4    299.82845   -480.69473    171.33741    136.00843    136.09425    480.69473   0.88134205 
    8120    3172167.2    299.68224   -522.86711    171.40866    135.99639    136.08052    522.86711   0.88212431 
    8140    3173020.3    300.11253    -439.5292     171.4799    136.01072    136.04623     439.5292   0.88290657 
    8160    3172905.2    300.03175   -499.33897    171.55114    135.96962    136.02589    499.33897   0.88368883 
    8180    3172885.7     299.9914    -613.9974    171.62238    135.92834    136.00989     613.9974    0.8844711 
    8200    3173065.6     300.3807   -629.29973    171.69362    135.88821    136.00132    629.29973   0.88525336 
    8220    3173740.6    300.51242   -721.61049    171.76487    135.88937    135.97266    721.61049   0.88603562 
    8240    3174614.5    299.75498   -577.95268    171.83611    135.91263    135.93045    577.95268   0.88681788 
    8260    3174387.4    299.70159   -503.81695    171.90735    135.88249    135.89453    503.81695   0.88760015 
    8280    3175357.6    300.64699   -527.72093    171.97859    135.87359    135.88866    527.72093   0.88838241 
    8300    3177431.3    300.10397   -549.07197    172.04984    135.91676    135.87792    549.07197   0.88916467 
    8320    3176560.4    299.61673   -558.96675    172.12108    135.89117    135.81003    558.96675   0.88994694 
    8340      3177507    299.33106   -628.26838    172.19232    135.87739    135.80806    628.26838    0.8907292 
    8360    3178529.1    299.99444   -510.31974    172.26356    135.86819    135.80476    510.31974   0.89151146 
    8380    3178862.7      299.788   -538.26763     172.3348    135.82417    135.80687    538.26763   0.89229372 
    8400    3180516.6    300.06981   -504.26637    172.40605    135.83947    135.80608    504.26637   0.89307599 
    8420      3181115      299.414   -507.10068    172.47729    135.82925    135.78573    507.10068   0.89385825 
    8440    3182093.6    300.08801   -504.61069    172.54853    135.81612    135.78455    504.61069   0.89464051 
    8460    3183201.4    300.09836   -587.30132    172.61977    135.78504    135.80684    587.30132   0.89542278 
    8480      3182956    300.13348   -561.85987    172.69101    135.76019     135.7652    561.85987   0.89620504 
    8500    3183260.4    300.04362   -586.18773    172.76226    135.76862    135.71376    586.18773    0.8969873 
    8520    3184988.1    299.49185    -691.9272     172.8335    135.75918    135.74089     691.9272   0.89776956 
    8540    3186126.1    299.66625   -682.82672    172.90474    135.78097    135.71165    682.82672   0.89855183 
    8560    3186613.1    299.98037   -646.56105    172.97598    135.77051    135.68695    646.56105   0.89933409 
    8580    3186295.1    299.90554   -481.35901    173.04723    135.70777    135.68025    481.35901   0.90011635 
    8600    3188348.3    299.88714   -639.39796    173.11847    135.75054    135.66905    639.39796   0.90089862 
    8620    3189639.3    300.24066   -618.63032    173.18971    135.75564    135.66306    618.63032   0.90168088 
    8640    3189205.3    300.17447   -569.70079    173.26095    135.69087    135.65355    569.70079   0.90246314 
    8660    3190191.5    299.95604   -720.95296    173.33219    135.70055    135.63004    720.95296    0.9032454 
    8680    3190500.3    299.18207   -613.02752    173.40344    135.67413    135.61385    613.02752   0.90402767 
    8700    3191132.1    299.86256   -490.80813    173.47468    135.65381    135.60532    490.80813   0.90480993 
    8720    3190609.5    299.69444   -510.24449    173.54592    135.62832    135.55292    510.24449   0.90559219 
    8740    3190302.4    299.72278   -354.87267    173.61716    135.58326    135.52928    354.87267   0.90637445 
    8760    3191470.8    299.35638   -548.32149     173.6884    135.60895    135.49763    548.32149   0.90715672 
    8780    3192028.6    299.48307   -497.89509    173.75965    135.57874    135.49593    497.89509   0.90793898 
    8800    3191239.2     298.9708   -497.01656    173.83089    135.52158    135.46401    497.01656   0.90872124 
    8820    3192205.6    299.66076   -407.27555    173.90213    135.52346    135.44764    407.27555   0.90950351 
    8840    3191972.7     299.5258   -345.96069    173.97337    135.47211    135.43362    345.96069   0.91028577 
    8860    3193720.9    300.09521   -329.51126    174.04462    135.51096    135.41349    329.51126   0.91106803 
    8880    3194634.9    299.36875   -379.35313    174.11586    135.55715    135.35069    379.35313   0.91185029 
    8900    3194923.2    299.39018   -436.68493     174.1871    135.55946    135.30524    436.68493   0.91263256 
    8920    3196811.4    300.05689   -488.59472    174.25834    135.55382    135.33548    488.59472   0.91341482 
    8940    3195661.7    299.25729    -560.2956    174.32958    135.52317    135.26211     560.2956   0.91419708 
    8960    3196820.1    299.85213   -590.77134    174.40083    135.54156    135.23751    590.77134   0.91497935 
    8980    3198346.9    300.27878   -706.67853    174.47207    135.52523    135.26315    706.67853   0.91576161 
    9000    3198139.4    299.65027    -752.6748    174.54331    135.50752    135.21684     752.6748   0.91654387 
    9020    3199501.8    300.40578    -633.3843    174.61455    135.54079    135.18606     633.3843   0.91732613 
    9040    3200253.3    300.77772   -530.73691     174.6858    135.51993    135.18347    530.73691    0.9181084 
    9060    3201434.4    300.75111   -379.19502    174.75704    135.51432    135.18383    379.19502   0.91889066 
    9080    3203240.5    300.78685   -496.60895    174.82828    135.53769    135.18166    496.60895   0.91967292 
    9100    3203055.9    301.09629   -505.18861    174.89952     135.4767    135.17964    505.18861   0.92045519 
    9120    3203442.7    301.26584   -659.80546    174.97076    135.47802     135.1396    659.80546   0.92123745 
    9140    3204610.4    300.60356   -695.92223    175.04201    135.46805    135.14378    695.92223   0.92201971 
    9160      3205057     300.9809   -751.23925    175.11325    135.43751     135.1381    751.23925   0.92280197 
    9180    3205615.1    301.09355   -643.81012    175.18449    135.42385    135.12029    643.81012   0.92358424 
    9200    3206152.3    301.03515   -616.99297    175.25573    135.43867    135.07322    616.99297    0.9243665 
    9220    3208141.6    300.15767   -587.29858    175.32697    135.43414    135.10662    587.29858   0.92514876 
    9240    3208015.9    300.12229    -467.6694    175.39822    135.40015    135.08036     467.6694   0.92593102 
    9260    3207127.4     300.3757   -426.88696    175.46946    135.34237    135.04574    426.88696   0.92671329 
    9280      3208688    300.21672   -555.70503     175.5407     135.3577    135.04133    555.70503   0.92749555 
    9300    3210592.7    300.42678   -441.89284    175.61194    135.39253    135.03193    441.89284   0.92827781 
    9320    3211806.8    300.71318   -539.71468    175.68319    135.40719    135.01359    539.71468   0.92906008 
    9340    3212623.6    300.80434   -523.76798    175.75443    135.39212    135.00821    523.76798   0.92984234 
    9360    3212126.7    300.05466   -442.28179    175.82567    135.34557    134.97904    442.28179    0.9306246 
    9380      3213659    300.20471   -328.27549    175.89691    135.36236    134.97199    328.27549   0.93140686 
    9400    3214020.9    300.72787   -459.92925    175.96815    135.34984    134.94502    459.92925   0.93218913 
    9420    3214300.9    300.37269   -381.41757     176.0394    135.33688    134.91509    381.41757   0.93297139 
    9440    3216742.1     300.5087   -501.12117    176.11064    135.36732    134.93258    501.12117   0.93375365 
    9460    3216095.2    299.81537   -507.37404    176.18188    135.31004    134.90798    507.37404   0.93453592 
    9480    3217718.2    299.04918   -547.44643    176.25312    135.30355    134.92797    547.44643   0.93531818 
    9500    3218730.7    300.29155   -545.17877    176.32437    135.28998    134.92943    545.17877   0.93610044 
    9520    3218906.2     300.1457   -463.72579    176.39561    135.28206    134.89019    463.72579    0.9368827 
    9540    3218697.9     299.7769   -329.05342    176.46685    135.24017    134.86877    329.05342   0.93766497 
    9560      3220187    299.79982    -492.7345    176.53809    135.25112    134.86579     492.7345   0.93844723 
    9580    3222471.4    300.20442   -403.20149    176.60933    135.26596    134.89222    403.20149   0.93922949 
    9600    3222105.3     299.5837   -451.41351    176.68058     135.2267    134.86166    451.41351   0.94001176 
    9620    3222425.8    299.72973   -529.87511    176.75182    135.19705    134.85027    529.87511   0.94079402 
    9640      3224191    299.53364   -570.22517    176.82306    135.22567    134.84123    570.22517   0.94157628 
    9660    3224717.4    300.39668   -602.06677     176.8943     135.1927    134.84181    602.06677   0.94235854 
    9680    3224473.7    299.73226   -551.99878    176.96554    135.12902    134.84085    551.99878   0.94314081 
    9700      3225822    299.72119    -543.3943    177.03679    135.14486    134.82715     543.3943   0.94392307 
    9720    3227689.4    299.93512    -443.4121    177.10803    135.14832    134.84748     443.4121   0.94470533 
    9740    3228505.9    299.86413   -330.97631    177.17927    135.10802    134.86757    330.97631    0.9454876 
    9760    3229024.5    299.46135   -433.47773    177.25051    135.11641    134.82665    433.47773   0.94626986 
    9780    3231920.9    299.76852   -481.71374    177.32176    135.16002    134.84985    481.71374   0.94705212 
    9800    3233335.2     299.6034   -579.94559      177.393    135.16263    134.85207    579.94559   0.94783438 
    9820    3233970.7    299.62258    -512.8506    177.46424    135.16723    134.81985     512.8506   0.94861665 
    9840    3235626.4    299.01109   -544.47964    177.53548    135.14178    134.86013    544.47964   0.94939891 
    9860    3237433.8    299.43777   -374.86153    177.60672    135.15551    134.86764    374.86153   0.95018117 
    9880    3237236.2    299.30234    -293.2141    177.67797    135.14355    134.81726     293.2141   0.95096343 
    9900    3238780.7    299.54345   -312.15449    177.74921    135.16523    134.80589    312.15449    0.9517457 
    9920    3241247.8    299.08929   -419.89402    177.82045    135.16543    134.85433    419.89402   0.95252796 
    9940    3242410.4    299.43831   -629.42323    177.89169     135.1321    134.88194    629.42323   0.95331022 
    9960    3242338.5    299.69041   -772.25826    177.96294    135.10508    134.85192    772.25826   0.95409249 
    9980    3243198.3    299.64205   -607.45895    178.03418    135.10747    134.83131    607.45895   0.95487475 
   10000    3244750.4    299.52796   -582.63827    178.10542    135.14684     134.8026    582.63827   0.95565701 
   10020    3244508.2    299.47107    -439.8292    178.17666    135.12229    134.76312     439.8292   0.95643927 
   10040    3244868.5    299.49781   -337.54824     178.2479    135.06279    134.78357    337.54824   0.95722154 
   10060    3246707.7    300.78418   -286.51118    178.31915    135.08191      134.787    286.51118    0.9580038 
   10080    3246976.9    301.35298   -306.02057    178.39039    135.08605    134.74022    306.02057   0.95878606 
   10100    3247059.7    300.76178    -371.7367    178.46163    135.04571     134.7301     371.7367   0.95956833 
   10120    3248358.2     300.4917   -536.43412    178.53287    135.03179    134.74409    536.43412   0.96035059 
   10140    3250716.2    299.98853   -521.05449    178.60411    135.04761    134.77232    521.05449   0.96113285 
   10160      3250492    300.79277   -645.62447    178.67536    135.01897    134.73786    645.62447   0.96191511 
   10180    3249222.8    299.68282   -424.54441     178.7466    134.94626    134.70412    424.54441   0.96269738 
   10200    3249319.4    300.09213      -510.03    178.81784    134.90472    134.69591       510.03   0.96347964 
   10220    3251020.9    300.49979   -589.67288    178.88908    134.96429    134.65332    589.67288    0.9642619 
   10240    3250290.2    301.17019   -541.20844    178.96033    134.94556    134.58814    541.20844   0.96504417 
   10260    3250881.1    300.37354   -561.42826    179.03157    134.88824    134.61622    561.42826   0.96582643 
   10280    3252398.5    301.20467   -712.89866    179.10281    134.86465    134.64903    712.89866   0.96660869 
   10300    3252287.6     300.1871   -614.48135    179.17405    134.82361    134.63187    614.48135   0.96739095 
   10320    3252503.3     300.7166   -582.60877    179.24529    134.80598    134.60489    582.60877   0.96817322 
   10340    3251675.3    300.31351   -426.20083    179.31654    134.77236    134.55071    426.20083   0.96895548 
   10360    3252616.8    300.84755   -422.11168    179.38778    134.76812    134.54045    422.11168   0.96973774 
   10380    3254467.7    300.22976    -384.1182    179.45902    134.73996    134.59169     384.1182      0.97052 
   10400    3255903.8    300.32281   -577.69216    179.53026    134.75726    134.58037    577.69216   0.97130227 
   10420    3257122.6    300.71436    -541.6319     179.6015     134.7527     134.5819     541.6319   0.97208453 
   10440    3257139.6    300.88632   -575.35137    179.67275    134.71755    134.56434    575.35137   0.97286679 
   10460    3257383.1    300.55467   -367.49264    179.74399    134.70674    134.53186    367.49264   0.97364906 
   10480    3258118.4    300.87038   -397.24524    179.81523    134.73293    134.48276    397.24524   0.97443132 
   10500      3258354    300.02432   -379.39087    179.88647    134.66267    134.50937    379.39087   0.97521358 
   10520      3258854    299.41254   -290.72187    179.95772     134.6499    134.48951    290.72187   0.97599584 
   10540    3260690.1    299.94456   -417.01158    180.02896    134.65422    134.50771    417.01158   0.97677811 
   10560      3261306    300.08553   -340.85116     180.1002    134.56724    134.56683    340.85116   0.97756037 
   10580    3262032.1    299.76577   -543.85966    180.17144     134.5791    134.53171    543.85966   0.97834263 
   10600    3263742.5    299.54325   -518.41133    180.24268    134.57958    134.54856    518.41133    0.9791249 
   10620    3263898.3    299.72567   -510.30929    180.31393    134.53751    134.54388    510.30929   0.97990716 
   10640    3264309.3    300.78909    -603.8725    180.38517    134.52959     134.5156     603.8725   0.98068942 
   10660    3264402.4    300.18691   -581.08434    180.45641    134.56328    134.43267    581.08434   0.98147168 
   10680    3265338.3    300.37241   -692.99946    180.52765    134.54152    134.43988    692.99946   0.98225395 
   10700    3264710.4    300.01467   -449.82103     180.5989    134.53139    134.37112    449.82103   0.98303621 
   10720      3264677     299.6137    -382.8203    180.67014    134.47984    134.36825     382.8203   0.98381847 
   10740    3265821.5    299.75394   -352.20345    180.74138    134.46661    134.37559    352.20345   0.98460074 
   10760    3266974.2    300.43224   -333.46156    180.81262    134.46859    134.36808    333.46156     0.985383 
   10780      3267964    300.59992   -483.79504    180.88386     134.4681    134.35634    483.79504   0.98616526 
   10800    3267831.4    299.51105   -440.48463    180.95511     134.4301    134.33596    440.48463   0.98694752 
   10820    3267800.1    299.37698   -377.38366    181.02635    134.39813    134.31375    377.38366   0.98772979 
   10840    3268985.3     299.2457   -442.22158    181.09759    134.44059    134.26718    442.22158   0.98851205 
   10860    3269000.9    300.29765   -451.37859    181.16883    134.41377    134.24181    451.37859   0.98929431 
   10880    3269634.9    299.85576   -466.39603    181.24007    134.37961    134.24918    466.39603   0.99007657 
   10900    3270328.9    300.26045   -533.00143    181.31132    134.33231    134.27218    533.00143   0.99085884 
   10920    3270003.4    300.05479   -449.92126    181.38256     134.2993    134.23907    449.92126    0.9916411 
   10940    3271545.2    300.77565   -523.31874     181.4538    134.27546    134.27346    523.31874   0.99242336 
   10960    3271582.5    300.40149   -483.18397    181.52504    134.29045    134.20731    483.18397   0.99320563 
   10980    3272568.4    300.24043   -512.00734    181.59629    134.28286    134.20268    512.00734   0.99398789 
   11000      3273556    300.28359   -531.03753    181.66753     134.2369    134.23648    531.03753   0.99477015 
   11020    3273299.3    300.56634   -532.27598    181.73877    134.18669    134.22354    532.27598   0.99555241 
   11040    3273946.8    300.46367   -459.06469    181.81001    134.18014    134.20404    459.06469   0.99633468 
   11060    3273807.6    299.73042   -494.80501    181.88125    134.17305    134.15286    494.80501   0.99711694 
   11080    3274615.4    300.15828   -544.06835     181.9525    134.15195    134.15452    544.06835    0.9978992 
   11100      3276857    300.72431   -546.99381    182.02374    134.19187    134.15388    546.99381   0.99868147 
   11120      3277040    300.58777   -641.80491    182.09498    134.18212    134.11864    641.80491   0.99946373 
   11140    3276459.9    300.15483   -396.53857    182.16622    134.13025    134.09429    396.53857     1.000246 
   11160    3276927.1    300.29802   -283.09476    182.23747    134.08769    134.10353    283.09476    1.0010283 
   11180    3278007.7    300.63035   -273.72647    182.30871    134.06154    134.12148    273.72647    1.0018105 
   11200    3278826.5    299.70638   -302.02519    182.37995    133.97849    134.18571    302.02519    1.0025928 
   11220    3278712.5    300.73115   -362.83029    182.45119    133.94459     134.1626    362.83029     1.003375 
   11240      3280841    300.70286   -496.33819    182.52243    133.93197    134.20994    496.33819    1.0041573 
   11260    3281772.6    299.72462    -520.9168    182.59368    133.93639    134.19124     520.9168    1.0049396 
   11280      3282994    299.23856   -519.52702    182.66492    133.92888    134.19635    519.52702    1.0057218 
   11300    3284031.6    300.47492   -437.48626    182.73616    133.90584    134.20952    437.48626    1.0065041 
   11320    3285609.9    299.77178   -421.20211     182.8074    133.94316     134.1843    421.20211    1.0072864 
   11340    3286901.3    300.03879   -428.62502    182.87864    133.95588      134.172    428.62502    1.0080686 
   11360    3287091.7    299.87044   -409.61408    182.94989    133.96429     134.1191    409.61408    1.0088509 
   11380    3288968.3    299.53856    -448.9191    183.02113     133.9911     134.1166     448.9191    1.0096331 
   11400      3288989    299.97527   -445.71553    183.09237    133.94056    134.11584    445.71553    1.0104154 
   11420    3290087.3    299.90122   -372.94834    183.16361    133.92688    134.12214    372.94834    1.0111977 
   11440    3291230.3     300.5978   -430.57529    183.23486    133.93244      134.111    430.57529    1.0119799 
   11460    3293068.9    300.17518    -483.0955     183.3061    133.90762    134.15863     483.0955    1.0127622 
   11480    3293483.2    300.47711   -466.53357    183.37734    133.86888    134.16219    466.53357    1.0135445 
   11500    3294020.6    300.45119   -435.58004    183.44858     133.8195    134.18147    435.58004    1.0143267 
   11520    3295292.5    300.66613   -410.58848    183.51982    133.83568    134.16495    410.58848     1.015109 
   11540    3294581.2    300.87671   -348.30941    183.59107     133.7873    134.13243    348.30941    1.0158912 
   11560    3295795.8    300.35855   -423.16303    183.66231    133.77284    134.14433    423.16303    1.0166735 
   11580    3296355.6    299.71273    -474.4836    183.73355    133.75827     134.1297     474.4836    1.0174558 
   11600    3297038.4    300.96517   -466.95716    183.80479      133.752    134.11177    466.95716     1.018238 
   11620    3297849.4     299.7709    -499.6572    183.87603    133.75526    134.08952     499.6572    1.0190203 
   11640    3298978.6    300.35292   -471.70372    183.94728    133.77616    134.06253    471.70372    1.0198026 
   11660    3300201.2    299.73074   -563.02174    184.01852    133.76711    134.06936    563.02174    1.0205848 
   11680    3300401.1    299.80032   -495.64389    184.08976     133.7597    134.03302    495.64389    1.0213671 
   11700    3300819.5    299.02555   -542.43452      184.161    133.71104    134.04692    542.43452    1.0221493 
   11720    3302100.2     299.7616   -444.65068    184.23225    133.68205    134.07615    444.65068    1.0229316 
   11740    3301397.8    299.94635   -382.70769    184.30349    133.66854    134.00935    382.70769    1.0237139 
   11760    3302420.8    300.12441   -416.06586    184.37473    133.65034    134.01733    416.06586    1.0244961 
   11780    3304720.4    299.65469   -486.66872    184.44597    133.70387    134.00517    486.66872    1.0252784 
   11800    3305294.1    298.98743   -480.05546    184.51721    133.68606    133.99453    480.05546    1.0260607 
   11820    3305681.4    299.80218   -408.12953    184.58846    133.66819    133.97642    408.12953    1.0268429 
   11840    3307964.7    299.38623   -504.95831     184.6597    133.65065    134.03483    504.95831    1.0276252 
   11860    3308118.9    299.76982    -451.3995    184.73094      133.632    134.00809     451.3995    1.0284075 
   11880      3307896    299.52427   -491.87435    184.80218    133.59367    133.98583    491.87435    1.0291897 
   11900    3309166.9    300.68057   -467.83098    184.87343    133.60181    133.97749    467.83098     1.029972 
   11920    3310510.7    300.77786    -511.7982    184.94467    133.60205    133.98003     511.7982    1.0307542 
   11940    3311512.2    300.83731   -439.79182    185.01591    133.64318    133.92772    439.79182    1.0315365 
   11960    3309875.5    300.75137   -388.60575    185.08715    133.60463    133.84861    388.60575    1.0323188 
   11980    3311598.8    300.94405   -526.55824    185.15839    133.64594     133.8254    526.55824     1.033101 
   12000    3311797.5     301.1914   -557.18403    185.22964    133.61877    133.80916    557.18403    1.0338833 
   12020      3311023    300.40834   -514.32683    185.30088    133.57539    133.76986    514.32683    1.0346656 
   12040    3311664.1    300.75601   -462.38821    185.37212    133.59904    133.72066    462.38821    1.0354478 
   12060    3311837.4    300.90443   -505.68116    185.44336    133.58485    133.69049    505.68116    1.0362301 
   12080    3313352.7    301.16219   -661.41068     185.5146    133.61293    133.67219    661.41068    1.0370123 
   12100    3314572.1    300.82829   -587.06966    185.58585    133.62045    133.66254    587.06966    1.0377946 
   12120    3314780.9    300.78005   -489.08999    185.65709     133.6141    133.62601    489.08999    1.0385769 
   12140    3315412.1    301.08825    -368.0743    185.72833    133.58092    133.63337     368.0743    1.0393591 
   12160    3316147.4    300.77301   -407.57906    185.79957    133.56267    133.63001    407.57906    1.0401414 
   12180    3316063.7    300.33363   -333.10804    185.87082    133.51483    133.62329    333.10804    1.0409237 
   12200    3317618.5    299.50106    -378.4335    185.94206     133.5746    133.57492     378.4335    1.0417059 
   12220    3316828.9    300.11836   -331.00544     186.0133    133.53103    133.53555    331.00544    1.0424882 
   12240    3317365.3    300.42331   -393.77988    186.08454    133.50687    133.53017    393.77988    1.0432704 
   12260    3317912.9    300.25703   -450.68411    186.15578    133.50249    133.50548    450.68411    1.0440527 
   12280    3318456.1    299.89782   -428.44316    186.22703    133.48786    133.49088    428.44316     1.044835 
   12300    3319747.6     300.5935    -490.0718    186.29827    133.43788    133.54176     490.0718    1.0456172 
   12320    3319494.8     300.0827   -351.59624    186.36951    133.42076    133.49768    351.59624    1.0463995 
   12340    3320698.3    300.11567   -301.60691    186.44075    133.42395    133.49186    301.60691    1.0471818 
   12360    3321582.4    300.24563   -411.79554      186.512    133.42475    133.47559    411.79554     1.047964 
   12380    3322289.6    299.95238   -244.68875    186.58324    133.44646    133.43133    244.68875    1.0487463 
   12400    3323247.3    299.68094    -285.3581    186.65448    133.40772    133.45759     285.3581    1.0495285 
   12420    3324413.4    299.77855   -244.20859    186.72572    133.37463     133.4866    244.20859    1.0503108 
   12440    3325653.5    299.79387   -295.71824    186.79696    133.35848    133.50162    295.71824    1.0510931 
   12460    3325413.5    299.49381   -232.16175    186.86821     133.3276    133.47201    232.16175    1.0518753 
   12480      3326678    300.45441   -272.70969    186.93945    133.33282    133.46664    272.70969    1.0526576 
   12500    3329996.7    300.24464   -390.05644    187.01069     133.3719    133.50976    390.05644    1.0534399 
   12520    3330424.6    300.49508   -512.26941    187.08193    133.32635    133.52168    512.26941    1.0542221 
   12540    3330716.2    300.17702   -493.46178    187.15317     133.3011    133.50782    493.46178    1.0550044 
   12560    3331376.1    300.00451   -437.94918    187.22442     133.2595    133.52513    437.94918    1.0557867 
   12580    3331992.2    300.40002   -366.47499    187.29566    133.25782     133.5007    366.47499    1.0565689 
   12600    3333679.3    299.79002   -457.11156     187.3669    133.24693    133.52842    457.11156    1.0573512 
   12620    3333965.6    299.59474   -316.65491    187.43814    133.21614    133.51999    316.65491    1.0581334 
   12640    3335185.8    299.71573   -392.03373    187.50939    133.24418    133.49001    392.03373    1.0589157 
   12660      3335325    299.92499   -407.22751    187.58063    133.24903    133.44003    407.22751     1.059698 
   12680    3335443.6    299.37582   -513.35215    187.65187     133.1758    133.46746    513.35215    1.0604802 
   12700    3335769.5    300.25179   -410.01259    187.72311    133.16906     133.4366    410.01259    1.0612625 
   12720    3336624.9    299.75784   -381.48783    187.79435     133.1844    133.40481    381.48783    1.0620448 
   12740      3336416    299.26215   -382.45321     187.8656    133.14233    133.38801    382.45321     1.062827 
   12760    3338282.1    299.78937   -348.58277    187.93684    133.14362    133.41073    348.58277    1.0636093 
   12780    3337987.3    300.29006   -182.79116    188.00808    133.16612    133.32586    182.79116    1.0643915 
   12800    3337637.1    299.71435   -275.76601    188.07932    133.12434     133.3032    275.76601    1.0651738 
   12820    3338534.5    300.41527   -201.80713    188.15056    133.11154    133.30138    201.80713    1.0659561 
   12840    3338734.9    300.20482   -378.15525    188.22181     133.1406    133.22984    378.15525    1.0667383 
   12860    3339943.7    299.84144   -419.47104    188.29305    133.12254    133.24572    419.47104    1.0675206 
   12880    3339003.2    300.30239    -369.1828    188.36429    133.06908    133.21131     369.1828    1.0683029 
   12900      3340217    299.98822   -340.16151    188.43553    133.10654    133.17187    340.16151    1.0690851 
   12920    3339512.8    300.47134   -281.78342    188.50678    133.08849    133.11153    281.78342    1.0698674 
   12940    3338844.2    300.27346   -152.66482    188.57802    133.03619     133.0869    152.66482    1.0706496 
   12960    3339871.7    299.87966   -166.63376    188.64926    133.04065    133.07311    166.63376    1.0714319 
   12980    3340499.4    300.50016   -450.29166     188.7205    133.03507    133.05346    450.29166    1.0722142 
   13000    3341454.2    300.04626   -422.59071    188.79174    133.07879    132.99756    422.59071    1.0729964 
   13020    3342070.5    300.02674   -432.44764    188.86299    133.08028    132.97042    432.44764    1.0737787 
[...]
   36740    3998676.5    299.69785   -368.24929     273.3562    120.26294    121.63416    368.24929    2.0015424 
   36760    3997794.6    301.08159   -317.53543    273.42744    120.26584    121.57271    317.53543    2.0023246 
   36780    3998413.9    300.40419   -300.25473    273.49868    120.26253    121.56321    300.25473    2.0031069 
   36800    4000434.2    299.87141   -459.86361    273.56992    120.27806    121.57727    459.86361    2.0038892 
   36820    4001424.9    299.67236   -413.23368    273.64117    120.25889    121.59509    413.23368    2.0046714 
   36840    4001163.8    299.23189   -354.31724    273.71241    120.24872    121.56579    354.31724    2.0054537 
   36860    4001682.3    299.58479   -307.85141    273.78365    120.24884    121.54979    307.85141     2.006236 
   36880    4001947.7    299.46186   -288.47442    273.85489    120.24794    121.52713    288.47442    2.0070182 
   36900    4002466.4    299.18828   -299.94366    273.92613    120.24005    121.51925    299.94366    2.0078005 
   36920      4003607    299.31975   -249.09437    273.99738    120.27557    121.48639    249.09437    2.0085827 
   36940    4003885.9    300.07786   -250.89338    274.06862    120.24198     121.4972    250.89338     2.009365 
   36960      4003932    299.88765   -165.67789    274.13986    120.18828     121.5213    165.67789    2.0101473 
   36980    4005401.2    299.78814   -182.88665     274.2111    120.19182    121.53072    182.88665    2.0109295 
   37000    4006947.6    299.39042   -273.97009    274.28235    120.23583    121.50157    273.97009    2.0117118 
   37020    4007688.9    299.93498   -378.60073    274.35359    120.24076    121.48752    378.60073    2.0124941 
   37040    4007749.7     300.0907   -428.22258    274.42483    120.24396    121.45459    428.22258    2.0132763 
   37060    4008448.8     300.1626   -458.37324    274.49607     120.2172    121.47128    458.37324    2.0140586 
   37080    4009787.1    300.13397   -368.85352    274.56731    120.20108     121.4966    368.85352    2.0148408 
   37100    4010360.8    300.79534   -360.75459    274.63856      120.198    121.48557    360.75459    2.0156231 
   37120    4009992.1    300.65599   -215.21693     274.7098    120.15826    121.48306    215.21693    2.0164054 
   37140    4010927.7    300.68432     -161.065    274.78104    120.14482    121.49349      161.065    2.0171876 
   37160      4011843    300.60558   -232.80391    274.85228    120.14861    121.48588    232.80391    2.0179699 
   37180    4012125.7    300.49694   -283.87368    274.92353    120.17192    121.43941    283.87368    2.0187522 
   37200      4012007      300.847   -268.76152    274.99477    120.13697    121.43967    268.76152    2.0195344 
   37220    4011214.9    300.70615   -355.86279    275.06601       120.07    121.45195    355.86279    2.0203167 
   37240    4011552.9    301.28177   -270.24078    275.13725    120.06804    121.43272    270.24078     2.021099 
   37260    4011384.4    300.50784   -309.16651    275.20849    120.05017    121.41425    309.16651    2.0218812 
   37280    4012863.1    300.89005   -419.51926    275.27974    120.05426    121.42344    419.51926    2.0226635 
   37300    4013533.8    301.06534    -411.1208    275.35098      120.081    121.38528     411.1208    2.0234457 
   37320    4014515.8    301.16308   -358.47456    275.42222    120.10988    121.35438    358.47456     2.024228 
   37340    4016345.7     300.3369    -395.8927    275.49346    120.14359    121.34424     395.8927    2.0250103 
   37360    4016332.3    300.57862   -280.81279     275.5647    120.14216    121.31392    280.81279    2.0257925 
   37380      4016867    300.75971   -301.81745    275.63595    120.12079    121.32028    301.81745    2.0265748 
   37400    4017777.3    300.61615   -333.72012    275.70719    120.10773    121.32961    333.72012    2.0273571 
   37420    4016998.4    299.90913   -277.96119    275.77843    120.10756    121.27493    277.96119    2.0281393 
   37440    4018126.2    300.06433   -310.20151    275.84967    120.09972    121.28556    310.20151    2.0289216 
   37460    4018949.4    300.00349   -337.35023    275.92092    120.10248     121.2763    337.35023    2.0297038 
   37480    4019431.2    300.26305   -217.17972    275.99216    120.08726     121.2749    217.17972    2.0304861 
   37500    4021457.1    299.33894   -406.46368     276.0634    120.10573    121.28606    406.46368    2.0312684 
   37520    4022632.8    299.98357   -337.59963    276.13464    120.09851    121.29751    337.59963    2.0320506 
   37540      4023660     300.1298   -290.25167    276.20588     120.1061    121.28953    290.25167    2.0328329 
   37560    4025366.4    299.71547   -271.58268    276.27713     120.1316    121.28392    271.58268    2.0336152 
   37580    4026652.6    299.54157   -302.13861    276.34837    120.13763    121.28531    302.13861    2.0343974 
   37600      4027437    300.23905   -311.56182    276.41961    120.14851    121.26668    311.56182    2.0351797 
   37620    4029104.9    299.95825   -283.62787    276.49085    120.15276    121.28136    283.62787    2.0359619 
   37640    4029929.9    300.66791   -356.56141     276.5621    120.15762    121.27004    356.56141    2.0367442 
   37660    4031343.9    299.84152   -460.96448    276.63334    120.15761    121.28135    460.96448    2.0375265 
   37680    4032619.7    299.88246   -396.08003    276.70458    120.10192    121.34475    396.08003    2.0383087 
   37700    4032246.9     299.0415   -298.61753    276.77582    120.06574    121.33885    298.61753     2.039091 
   37720    4033401.3    299.83807   -266.43895    276.84706    120.09903    121.30871    266.43895    2.0398733 
   37740    4034429.8    300.25446   -181.91615    276.91831    120.11989    121.28737    181.91615    2.0406555 
   37760    4034697.1    300.50558   -147.97849    276.98955    120.11864    121.26547    147.97849    2.0414378 
   37780    4033988.9    300.41921   -138.63204    277.06079    120.05304    121.27924    138.63204      2.04222 
   37800    4035402.3    299.31495   -176.49225    277.13203    120.03952    121.30421    176.49225    2.0430023 
   37820    4036614.7    299.25753   -396.90222    277.20327    120.04068    121.30829    396.90222    2.0437846 
   37840    4036657.9    299.90785   -370.80846    277.27452    120.01051    121.30892    370.80846    2.0445668 
   37860    4035838.5    299.79847   -302.97791    277.34576    119.95758    121.30663    302.97791    2.0453491 
   37880      4036490    299.89018    -287.5648      277.417    119.96023    121.29238     287.5648    2.0461314 
   37900      4037607    299.88686   -269.72914    277.48824     119.9618     121.2932    269.72914    2.0469136 
   37920    4038281.3    300.59621    -243.6624    277.55949    119.94448    121.29984     243.6624    2.0476959 
   37940    4040560.7     299.3995   -363.84233    277.63073    119.95482    121.32671    363.84233    2.0484781 
   37960    4041678.1    299.12774   -274.23569    277.70197     119.9334    121.35079    274.23569    2.0492604 
   37980    4042041.1    299.43946    -338.4501    277.77321    119.92063    121.34348     338.4501    2.0500427 
   38000    4042085.9    299.46838   -311.34148    277.84445    119.88362    121.35116    311.34148    2.0508249 
   38020    4042641.7    300.08076   -378.90319     277.9157    119.90007    121.32009    378.90319    2.0516072 
   38040    4043026.3    299.09656   -391.34337    277.98694     119.8755     121.3254    391.34337    2.0523895 
   38060    4044297.8    299.64665   -375.85194    278.05818     119.8951    121.31263    375.85194    2.0531717 
   38080    4045336.9    300.37012   -319.54828    278.12942    119.88631    121.32161    319.54828     2.053954 
   38100    4044715.1    299.87606   -220.94465    278.20067    119.88413    121.27411    220.94465    2.0547363 
   38120      4044274    300.09298    -113.3179    278.27191    119.85325    121.26107     113.3179    2.0555185 
   38140    4043412.6     300.7666   -45.058493    278.34315    119.80636    121.25164    45.058493    2.0563008 
   38160    4043463.9     300.0536   -77.253067    278.41439    119.80016    121.22843    77.253067     2.057083 
   38180    4045079.4    300.60672    -196.5514    278.48563     119.8078    121.23811     196.5514    2.0578653 
   38200    4047260.8    300.34485   -369.51532    278.55688     119.8302    121.24979    369.51532    2.0586476 
   38220    4047524.8    301.03355   -411.03571    278.62812    119.79901    121.25826    411.03571    2.0594298 
   38240    4049423.7    300.49006   -384.20225    278.69936    119.78273    121.30062    384.20225    2.0602121 
   38260    4049584.6    301.05548   -335.15244     278.7706    119.78428    121.27288    335.15244    2.0609944 
   38280    4050211.9    301.37584    -342.2766    278.84184    119.79055    121.25432     342.2766    2.0617766 
   38300    4050984.1    301.42843   -434.94865    278.91309    119.76753    121.26977    434.94865    2.0625589 
   38320    4053217.1    300.89598   -449.42698    278.98433    119.81028    121.26235    449.42698    2.0633411 
   38340    4054668.4    300.63997    -377.2009    279.05557    119.80402    121.28114     377.2009    2.0641234 
   38360    4054661.6    299.88082   -379.68953    279.12681    119.78772    121.26648    379.68953    2.0649057 
   38380    4055167.2     300.6291   -293.72604    279.19806    119.76489    121.27377    293.72604    2.0656879 
   38400    4055116.7    299.30128   -326.67473     279.2693     119.7345    121.27209    326.67473    2.0664702 
   38420    4057328.9    300.74435   -433.17086    279.34054    119.72044    121.32155    433.17086    2.0672525 
   38440    4056887.9    300.50727   -399.33229    279.41178    119.69352     121.3047    399.33229    2.0680347 
   38460    4056713.1    299.81252   -254.73739    279.48302    119.69788    121.26414    254.73739     2.068817 
   38480      4057590    300.20615   -325.48032    279.55427    119.67251    121.28515    325.48032    2.0695992 
   38500    4057087.1    300.93224   -196.41825    279.62551    119.60578    121.30686    196.41825    2.0703815 
   38520    4057501.3    300.59448   -198.41426    279.69675    119.57104    121.32359    198.41426    2.0711638 
   38540    4058550.3    300.65418   -227.14082    279.76799    119.54918    121.34623    227.14082     2.071946 
   38560    4057789.3    300.70446   -181.95066    279.83923    119.48807    121.35463    181.95066    2.0727283 
   38580    4057788.8    299.82303   -218.10431    279.91048    119.49905    121.31258    218.10431    2.0735106 
   38600    4057666.6    299.15584   -277.01695    279.98172    119.42797    121.35024    277.01695    2.0742928 
   38620    4057754.1    299.99902   -323.76571    280.05296    119.39769    121.35275    323.76571    2.0750751 
   38640    4058895.8    300.17998   -381.93143     280.1242    119.38655    121.36735    381.93143    2.0758573 
   38660    4058822.6    299.46316   -454.97224    280.19545     119.3644    121.35681    454.97224    2.0766396 
   38680    4059998.3    299.06837   -453.68749    280.26669    119.36597    121.35951    453.68749    2.0774219 
   38700    4061204.8    299.29645   -422.84981    280.33793    119.35086     121.3801    422.84981    2.0782041 
   38720    4062288.9    300.36899   -377.72082    280.40917    119.31666    121.41644    377.72082    2.0789864 
   38740    4061934.3    300.10334   -296.33031    280.48041    119.29137    121.40074    296.33031    2.0797687 
   38760    4062286.3    299.58922    -316.1033    280.55166    119.28253    121.38943     316.1033    2.0805509 
   38780    4062579.4    300.37487   -328.93053     280.6229    119.26866    121.38148    328.93053    2.0813332 
   38800    4064305.3    300.29534   -336.11148    280.69414    119.27568    121.39508    336.11148    2.0821155 
   38820    4064880.1      299.701   -386.03766    280.76538    119.28353    121.37345    386.03766    2.0828977 
   38840    4065132.9    300.25331   -346.69575    280.83663    119.29529    121.33824    346.69575      2.08368 
   38860    4065037.1    299.77397   -368.34869    280.90787     119.2451    121.35567    368.34869    2.0844622 
   38880    4065254.4    298.95812   -325.47494    280.97911    119.25898    121.31726    325.47494    2.0852445 
   38900    4065704.3    299.92216   -244.56091    281.05035    119.23495    121.32438    244.56091    2.0860268 
   38920    4064692.4    299.40696   -220.15352    281.12159    119.19048    121.30869    220.15352     2.086809 
   38940    4066235.4    300.04079   -330.23772    281.19284    119.20228    121.31199    330.23772    2.0875913 
   38960    4065915.7    299.62977   -240.20955    281.26408    119.21277    121.26105    240.20955    2.0883736 
   38980    4066114.2    299.39507   -400.03341    281.33532    119.16421    121.28566    400.03341    2.0891558 
   39000    4065952.9    299.36158    -368.7815    281.40656    119.14074    121.27403     368.7815    2.0899381 
   39020      4066464    299.31755   -415.89055     281.4778    119.14234    121.25696    415.89055    2.0907203 
   39040    4067651.1    299.36128   -427.19445    281.54905    119.14785    121.25605    427.19445    2.0915026 
   39060      4067375    298.45949   -347.86287    281.62029    119.14009    121.22504    347.86287    2.0922849 
   39080    4067870.3    300.01759   -356.50509    281.69153    119.13359    121.21576    356.50509    2.0930671 
   39100    4069232.2    299.44497   -445.95117    281.76277    119.15283    121.20611    445.95117    2.0938494 
   39120    4069833.3    300.44946   -305.29763    281.83402     119.1352     121.2113    305.29763    2.0946317 
   39140    4070045.4    300.34172    -403.9719    281.90526    119.14362    121.17841     403.9719    2.0954139 
   39160    4070724.8    299.99867   -331.86908     281.9765    119.16598    121.14529    331.86908    2.0961962 
   39180    4069699.1    300.19098   -194.85929    282.04774    119.13786    121.11276    194.85929    2.0969784 
   39200    4072834.5    300.87391   -290.35342    282.11898    119.15099     121.1621    290.35342    2.0977607 
   39220    4073033.4     300.4363   -259.33961    282.19023    119.16803    121.12011    259.33961     2.098543 
   39240    4071126.3    302.03149   -37.048713    282.26147    119.08699     121.1152    37.048713    2.0993252 
   39260    4072648.8    301.08984   -233.42311    282.33271    119.09113    121.12571    233.42311    2.1001075 
   39280    4075764.8    301.11492    -241.3312    282.40395    119.13353    121.14468     241.3312    2.1008898 
   39300    4075855.4    301.12195   -277.86366     282.4752    119.14089    121.10934    277.86366     2.101672 
   39320    4074537.7    301.19819    -203.9298    282.54644    119.08845    121.09294     203.9298    2.1024543 
   39340      4074502    301.54558   -221.94865    282.61768    119.09877    121.05088    221.94865    2.1032365 
   39360    4075992.2    300.95007   -274.90269    282.68892    119.09154    121.07198    274.90269    2.1040188 
   39380    4077654.1    300.47614   -367.17116    282.76016    119.10928    121.07279    367.17116    2.1048011 
   39400    4076949.4    301.09799   -265.43861    282.83141    119.08369    121.04738    265.43861    2.1055833 
   39420      4076794    300.30789   -269.58776    282.90265    119.06772    121.02852    269.58776    2.1063656 
   39440      4079191    300.44008    -245.4434    282.97389    119.05728    121.07981     245.4434    2.1071479 
   39460      4079936    300.73105   -311.22691    283.04513    119.06935    121.05916    311.22691    2.1079301 
   39480    4078991.1    300.45846   -223.13733    283.11637    119.07134    120.99865    223.13733    2.1087124 
   39500    4079871.3    299.71766   -283.05496    283.18762    119.03224    121.03406    283.05496    2.1094946 
   39520    4080347.3    300.50922   -304.36983    283.25886    119.04061    121.00922    304.36983    2.1102769 
   39540    4082087.2    300.32318   -356.11766     283.3301    119.04874    121.02212    356.11766    2.1110592 
   39560    4082521.2    300.09326    -348.0697    283.40134    119.02455    121.02915     348.0697    2.1118414 
   39580    4081103.6    300.59902   -357.79011    283.47259    118.97788    121.00416    357.79011    2.1126237 
   39600    4083158.8    299.73214   -444.33194    283.54383    119.02676    120.98498    444.33194     2.113406 
   39620      4085465    300.04729   -477.69826    283.61507    119.06818     120.9808    477.69826    2.1141882 
   39640    4084751.7    299.82062   -311.31278    283.68631    119.06053    120.93708    311.31278    2.1149705 
   39660    4083860.1    299.58072   -306.65638    283.75755     119.0145    120.92708    306.65638    2.1157528 
   39680    4085170.2    299.52199   -260.22536     283.8288    119.04512     120.9044    260.22536     2.116535 
   39700      4086662    299.90401   -248.91611    283.90004    119.04674    120.91656    248.91611    2.1173173 
   39720    4088267.7    299.86661   -251.19868    283.97128     119.0639    120.91628    251.19868    2.1180995 
   39740    4087792.4    300.45368   -342.50138    284.04252    119.06471    120.87109    342.50138    2.1188818 
   39760    4089275.5    299.76107   -140.14131    284.11376    119.06636    120.88294    140.14131    2.1196641 
   39780    4090705.9    299.88962   -231.99895    284.18501     119.0705    120.89071    231.99895    2.1204463 
   39800    4090782.7    300.56549   -91.291005    284.25625     119.0649    120.86836    91.291005    2.1212286 
   39820    4090785.6    300.43245   -92.430801    284.32749     119.0991    120.80346    92.430801    2.1220109 
   39840    4093270.8      299.436   -167.81412    284.39873    119.12723    120.81804    167.81412    2.1227931 
   39860      4094990    300.28956   -263.69164    284.46998    119.12304    120.84276    263.69164    2.1235754 
   39880    4094064.5    300.78423    -336.0705    284.54122    119.09106    120.81763     336.0705    2.1243576 
   39900    4094941.8    299.18884   -278.27389    284.61246    119.05427    120.85061    278.27389    2.1251399 
   39920    4095760.2    299.88823   -297.69723     284.6837    119.03371    120.86538    297.69723    2.1259222 
   39940    4095020.5    300.03705    -259.0579    284.75494    119.02682    120.82032     259.0579    2.1267044 
   39960    4095765.6     299.9452   -221.57597    284.82619    118.99803     120.8413    221.57597    2.1274867 
   39980      4097189    300.50147   -284.01905    284.89743    118.97545    120.87601    284.01905     2.128269 
   40000    4097085.6    299.87799   -176.55433    284.96867    118.97402     120.8442    176.55433    2.1290512 
Loop time of 6140.94 on 64 procs for 40000 steps with 212040 atoms

Performance: 0.563 ns/day, 42.645 hours/ns, 6.514 timesteps/s
99.5% CPU use with 64 MPI tasks x 1 OpenMP threads

MPI task timing breakdown:
Section |  min time  |  avg time  |  max time  |%varavg| %total
---------------------------------------------------------------
Pair    | 807.79     | 1642       | 2229.5     | 725.5 | 26.74
Bond    | 85.08      | 157.51     | 188.82     | 150.5 |  2.56
Kspace  | 425.03     | 1044.5     | 1951.8     | 967.4 | 17.01
Neigh   | 3046.1     | 3061.6     | 3084.4     |  19.7 | 49.86
Comm    | 124.37     | 155.1      | 181.13     | 122.9 |  2.53
Output  | 6.6966     | 6.7888     | 6.8649     |   1.2 |  0.11
Modify  | 57.918     | 69.192     | 80.107     |  77.8 |  1.13
Other   |            | 4.283      |            |       |  0.07

Nlocal:        3313.12 ave        4608 max        1343 min
Histogram: 3 2 2 6 6 9 8 15 9 4
Nghost:        17034.9 ave       21416 max       11197 min
Histogram: 3 11 6 7 3 2 3 0 13 16
Neighs:    1.69876e+06 ave 2.83405e+06 max      520378 min
Histogram: 4 4 6 6 9 8 13 7 5 2

Total # of neighbors = 1.0872094e+08
Ave neighs/atom = 512.73789
Ave special neighs/atom = 5.9990568
Neighbor list builds = 40000
Dangerous builds not checked
Total wall time: 1:42:25
