LAMMPS (29 Oct 2020)
OMP_NUM_THREADS environment is not set. Defaulting to 1 thread. (../comm.cpp:94)
  using 1 OpenMP thread(s) per MPI task
####################################################
#    This program is free software: you can redistribute it and/or modify
#    it under the terms of the GNU General Public License as published by
#    the Free Software Foundation, either version 3 of the License, or
#    (at your option) any later version.
#
#    This program is distributed in the hope that it will be useful,
#    but WITHOUT ANY WARRANTY; without even the implied warranty of
#    MERCHANTABILITY or FITNESS FOR A PARTICULAR PURPOSE.  See the
#    GNU General Public License for more details.


units		real        ## defines the units style used herein. More information: https://docs.lammps.org/units.html
atom_style	full        ## defines the atom style used herein. More information: https://docs.lammps.org/atom_style.html

# Styles
pair_style      lj/cut/coul/long 15.0 10.0      ## sets the formula(s) LAMMPS uses to compute pairwise interactions; here, lennard-jones (LJ) with long-range Coulomb interaction. More: https://docs.lammps.org/pair_lj_cut_coul.html
pair_modify     shift no                        ## the shift keyword determines whether a Lennard-Jones potential is shifted at its cutoff to 0.0. More: https://docs.lammps.org/pair_modify.html
kspace_style    pppm 1.0e-4                     ## defines a long-range solver for LAMMPS to compute long-range Coulombic interactions. Note: requires use of a matching pair style, i.e. PPPM with coul/long. More: https://docs.lammps.org/kspace_style.html
bond_style      harmonic                        ## defined based off the forcefield used to construct the system; models the atoms' interactions
angle_style     harmonic
dihedral_style  opls
improper_style  cvff
special_bonds   lj 0 0 1 coul 0 0 1

read_data       300K_TRP.lmps      ## input lammps datafile, equilibriated until structure nears experimental properties
Reading data file ...
  orthogonal box = (228.75783 228.75783 228.75783) to (371.24217 371.24217 371.24217)
  4 by 4 by 4 MPI processor grid
  reading atoms ...
  212040 atoms
  reading velocities ...
  212040 velocities
  scanning bonds ...
  2 = max bonds/atom
  scanning angles ...
  6 = max angles/atom
  scanning dihedrals ...
  15 = max dihedrals/atom
  scanning impropers ...
  2 = max impropers/atom
  reading bonds ...
  236020 bonds
  reading angles ...
  399920 angles
  reading dihedrals ...
  615800 dihedrals
  reading impropers ...
  127960 impropers
Finding 1-2 1-3 1-4 neighbors ...
  special bond factors lj:    0.0      0.0      1.0     
  special bond factors coul:  0.0      0.0      1.0     
     4 = max # of 1-2 neighbors
    10 = max # of 1-3 neighbors
    14 = max # of special neighbors
  special bonds CPU = 2.192 seconds
  read_data CPU = 4.944 seconds

dielectric      1.0
neighbor    	1.0 bin
neigh_modify	delay 0 every 1 check no        ## this is to make sure that the neighbor list is updated every timestep, and the atoms don't get lost as the system is being deformed ##

timestep	    1.0                             ## unit = fs, per "real" unit style
run_style       verlet                          ## defines algorithm used for simulation computation; verlet integration is a numerical method used to integrate Newton's equations of motion.

variable stress equal press*-1                         ## computes stress as the negative of press values
variable engStrain equal (lx-91.07191)/91.07191      ## computes engineering strain; lx_0 must be found and inputted manually (for now)

thermo		    20                                                               ## output log data (headers in thermo_style), recorded at every timestep in numList.txt
thermo_style    custom step vol temp press lx ly lz v_stress v_engStrain         ## data headers of output log file. More: https://docs.lammps.org/thermo_style.html

################# Deformation ##################

fix 1 all npt temp 300 300 100 y 1 1 100.0 z 1 1 100.0      ## stress normal to the x direction can vary; external pressure (y and z) = 1atm ##

fix 2 all deform 1 x scale 2.0 remap x                      ## sets a uniaxial (x-direction) deformation in motion, scaling a set amount (here, 4.0x) the initial length


################# Dumping ##################

reset_timestep 0

dump dump2 all custom 4000 sim.lammpstrj id mol type q xs ys zs ix iy iz

restart 8000 TRP.restart

run 		80000              ## this depends on the overall strain rate, where strain rate = deformScale / runTimeSteps (consider units!)
PPPM initialization ...
WARNING: System is not charge neutral, net charge = 0.034008 (../kspace.cpp:313)
  using 12-bit tables for long-range coulomb (../kspace.cpp:328)
  G vector (1/distance) = 0.20820024
  grid = 40 40 40
  stencil order = 5
  estimated absolute RMS force accuracy = 0.028258287
  estimated relative force accuracy = 8.5098991e-05
  using double precision FFTW3
  3d grid and FFT values/proc = 3375 1000
Neighbor list info ...
  update every 1 steps, delay 0 steps, check no
  max neighbors/atom: 2000, page size: 100000
  master list distance cutoff = 16
  ghost atom cutoff = 16
  binsize = 8, bins = 18 18 18
  1 neighbor lists, perpetual/occasional/extra = 1 0 0
  (1) pair lj/cut/coul/long, perpetual
      attributes: half, newton on
      pair build: half/bin/newton
      stencil: half/bin/3d/newton
      bin: standard
Per MPI rank memory allocation (min/avg/max) = 36.55 | 39.27 | 40.16 Mbytes
Step Volume Temp Press Lx Ly Lz v_stress v_engStrain 
       0    2892686.5    300.30718     14304.26    142.48434    142.48434    142.48434    -14304.26   0.56452561 
      20    2914314.6    306.26331    2175.6332    142.51996    143.00986    142.98641   -2175.6332   0.56491674 
      40    2936897.7    305.22645     1144.815    142.55558    143.55785    143.50851    -1144.815   0.56530787 
      60    2932242.5    305.54801   -135.59758     142.5912    143.43766    143.36527    135.59758     0.565699 
      80    2925695.6    305.54645    10.474175    142.62682    143.23416    143.21263   -10.474175   0.56609013 
     100    2926972.8    305.43075   -178.52031    142.66244     143.2538    143.21974    178.52031   0.56648127 
     120    2924426.4    302.56912   -705.85661    142.69806    143.20055    143.11262    705.85661    0.5668724 
     140    2918318.7     303.8874   -739.57592    142.73368    143.02349    142.95484    739.57592   0.56726353 
     160    2913568.8    303.31823   -562.79918     142.7693    142.89738    142.81248    562.79918   0.56765466 
     180    2916079.6    304.17441   -903.53058    142.80493    142.94654    142.85075    903.53058   0.56804579 
     200      2911953    303.05107   -234.14022    142.84055     142.8058    142.75358    234.14022   0.56843692 
     220    2912918.6    302.80408   -508.68486    142.87617     142.8344    142.73673    508.68486   0.56882805 
     240    2913334.9    302.44993     273.6417    142.91179     142.8074    142.74853    -273.6417   0.56921919 
     260    2907539.1    302.19712    401.95531    142.94741    142.62345    142.61274   -401.95531   0.56961032 
     280    2908937.1    301.02765    577.48096    142.98303    142.68746    142.58178   -577.48096   0.57000145 
     300    2909475.4    301.25174   -488.14725    143.01865    142.70714    142.55298    488.14725   0.57039258 
     320    2909085.6    301.78038    619.80682    143.05427    142.67453    142.53097   -619.80682   0.57078371 
     340    2908060.1    301.78572   -553.01737    143.08989    142.64675      142.473    553.01737   0.57117484 
     360    2908562.1    300.48612   -155.11564    143.12551     142.6553    142.45358    155.11564   0.57156597 
     380    2912518.6    300.88956   -157.40169    143.16114    142.72506    142.54216    157.40169   0.57195711 
     400    2912051.4    300.05811   -430.65002    143.19676    142.69936    142.50951    430.65002   0.57234824 
     420    2912934.1    300.69871   -300.27811    143.23238    142.72736    142.48929    300.27811   0.57273937 
     440    2912245.4    300.36678    302.80665      143.268    142.70821    142.43929   -302.80665    0.5731305 
     460    2913730.7    300.06312    -73.93373    143.30362    142.72288    142.46187     73.93373   0.57352163 
     480    2913004.5    299.46282   -153.08271    143.33924    142.69707    142.41672    153.08271   0.57391276 
     500    2914355.9    299.87745   -159.91965    143.37486    142.70554    142.43894    159.91965   0.57430389 
     520    2914236.9    299.26126    87.840019    143.41048    142.66755    142.43567   -87.840019   0.57469503 
     540    2917806.9    299.26562   -350.66856     143.4461    142.73347    142.50889    350.66856   0.57508616 
     560    2918166.4    299.50203   -213.99899    143.48173    142.70002    142.52447    213.99899   0.57547729 
     580    2916374.9    299.47575   -14.392813    143.51735    142.66181    142.43975    14.392813   0.57586842 
     600    2918577.9    299.40217   -8.0955436    143.55297     142.6957    142.47813    8.0955436   0.57625955 
     620    2919865.1    299.45749   -362.43238    143.58859    142.69104    142.51026    362.43238   0.57665068 
     640    2919567.3    298.65825    43.621499    143.62421    142.63057    142.52079   -43.621499   0.57704181 
     660    2920017.6    299.28888   -180.39146    143.65983    142.62997    142.50803    180.39146   0.57743295 
     680    2918999.1    299.37991    13.305617    143.69545    142.60842    142.44452   -13.305617   0.57782408 
     700    2918875.9    299.60098   -253.05271    143.73107    142.61368    142.39797    253.05271   0.57821521 
     720    2918822.3    299.72446   -76.785879    143.76669    142.58989    142.38382    76.785879   0.57860634 
     740      2918877    300.28478   -293.46317    143.80232    142.58701    142.35409    293.46317   0.57899747 
     760    2918728.2    300.63714    192.06775    143.83794    142.57409    142.32448   -192.06775    0.5793886 
     780      2919549    300.56142   -250.49682    143.87356    142.57644    142.32691    250.49682   0.57977973 
     800    2919745.3    300.61135    235.38779    143.90918    142.54913    142.32852   -235.38779   0.58017087 
     820      2918066    300.68521   -196.55365     143.9448    142.46121    142.29922    196.55365     0.580562 
     840    2918837.8      301.207   -37.014738    143.98042    142.46293    142.29992    37.014738   0.58095313 
     860    2918935.1    300.43768    -76.45445    144.01604    142.45263    142.27975     76.45445   0.58134426 
     880    2918643.4    300.26293    63.527558    144.05166    142.41037    142.27256   -63.527558   0.58173539 
     900    2919002.7    300.07491   -23.692134    144.08728    142.40374    142.26152    23.692134   0.58212652 
     920    2921550.1    301.49356   -64.236192    144.12291     142.4401    142.31414    64.236192   0.58251765 
     940    2920508.8    299.74352   -39.985295    144.15853    142.35533    142.31296    39.985295   0.58290879 
     960      2920940     300.0472   -95.194932    144.19415     142.3514    142.30273    95.194932   0.58329992 
     980    2922094.9    300.26898   -134.24889    144.22977    142.36012    142.31513    134.24889   0.58369105 
    1000    2921074.6    300.39747    95.521525    144.26539    142.29936    142.29104   -95.521525   0.58408218 
    1020    2923492.9     300.4636    -202.4866    144.30101    142.31498    142.35806     202.4866   0.58447331 
    1040    2922532.5    299.26189   -68.279309    144.33663    142.26256    142.32859    68.279309   0.58486444 
    1060    2924799.9    299.86331   -246.66712    144.37225    142.31205    142.35435    246.66712   0.58525557 
    1080    2924818.9    299.62975   -109.52804    144.40787    142.29278    142.33944    109.52804    0.5856467 
    1100    2924672.6    299.90922   -152.99477     144.4435    142.27166    142.31835    152.99477   0.58603784 
    1120      2924768    299.70985    197.99719    144.47912    142.25091    142.30865   -197.99719   0.58642897 
    1140    2926345.8    299.68389   -215.25063    144.51474    142.27429    142.32693    215.25063    0.5868201 
    1160    2925706.1    299.55366    -67.11067    144.55036    142.25863    142.27641     67.11067   0.58721123 
    1180    2925199.6    299.68293   -97.576375    144.58598     142.2154    142.25996    97.576375   0.58760236 
    1200    2927247.6    299.40395   -292.60464     144.6216    142.20127    142.33864    292.60464   0.58799349 
    1220    2926377.7    299.37285    -253.6831    144.65722    142.18951    142.27307     253.6831   0.58838462 
    1240    2927729.9    299.22145   -276.20171    144.69284    142.24607    142.24718    276.20171   0.58877576 
    1260    2926912.2    299.38974   -302.18693    144.72846    142.20883    142.20969    302.18693   0.58916689 
    1280    2927972.3    299.44821    20.304523    144.76408    142.19664    142.23838   -20.304523   0.58955802 
    1300    2926827.4    300.23741   -206.81948    144.79971    142.14875    142.19568    206.81948   0.58994915 
    1320      2927487    299.35073   -46.968119    144.83533    142.15729     142.1842    46.968119   0.59034028 
    1340      2928637    299.09991   -213.36983    144.87095    142.16361    142.19876    213.36983   0.59073141 
    1360    2928032.4    300.40696   -12.110151    144.90657    142.15686     142.1412    12.110151   0.59112254 
    1380    2929031.4    300.19457   -229.34731    144.94219    142.18661    142.12501    229.34731   0.59151368 
    1400    2928019.9    300.12941   -103.53998    144.97781    142.15444    142.07317    103.53998   0.59190481 
    1420    2929283.3    300.72098   -366.42834    145.01343    142.20241    142.05162    366.42834   0.59229594 
    1440    2928519.7     300.5685   -181.64245    145.04905    142.21384     141.9683    181.64245   0.59268707 
    1460    2929231.6    300.06541   -56.976759    145.08467    142.22787    141.95395    56.976759    0.5930782 
    1480    2930113.8    300.04241   -26.788558     145.1203    142.19454    141.99512    26.788558   0.59346933 
    1500      2931363    301.02975   -284.98019    145.15592    142.23774    141.97766    284.98019   0.59386046 
    1520    2929585.2    300.75342   -58.821535    145.19154    142.18104    141.91332    58.821535    0.5942516 
    1540      2930619     300.1613   -264.66029    145.22716    142.18142    141.92819    264.66029   0.59464273 
    1560    2932447.7    300.48857   -240.24582    145.26278    142.19769    141.96569    240.24582   0.59503386 
    1580    2932706.8    301.30093   -309.53948     145.2984    142.19851    141.94261    309.53948   0.59542499 
    1600    2932342.1    300.27093   -77.939797    145.33402    142.17822    141.91041    77.939797   0.59581612 
    1620    2933803.8    300.12384   -197.29561    145.36964    142.19453    141.93008    197.29561   0.59620725 
    1640    2933796.2    299.83187   -169.28289    145.40526    142.19581    141.89367    169.28289   0.59659838 
    1660    2934283.2    300.34525   -296.20775    145.44089    142.17737    141.90087    296.20775   0.59698952 
    1680      2934419    300.29776   -227.44842    145.47651    142.13456    141.91541    227.44842   0.59738065 
    1700    2934327.1    300.09869    -174.7554    145.51213     142.1014    141.90934     174.7554   0.59777178 
    1720    2935658.1    299.97199   -29.899949    145.54775    142.12811    141.91229    29.899949   0.59816291 
    1740    2935478.5    299.73048   -176.08838    145.58337     142.1096    141.88736    176.08838   0.59855404 
    1760    2935654.5    299.10723   -103.93686    145.61899    142.12665    141.84415    103.93686   0.59894517 
    1780    2935316.3    299.25352   -310.70326    145.65461    142.09392    141.82578    310.70326    0.5993363 
    1800    2937434.9    299.91103   -317.89495    145.69023    142.11847    141.86893    317.89495   0.59972744 
    1820    2937040.8     299.4257   -303.73633    145.72585    142.15953    141.77426    303.73633   0.60011857 
    1840    2938162.4    299.80982   -271.48107    145.76148    142.15514    141.79812    271.48107    0.6005097 
    1860    2937943.4    299.83983   -510.27691     145.7971    142.09781     141.8101    510.27691   0.60090083 
    1880    2939070.4     299.6146   -351.46788    145.83272     142.0914    141.83625    351.46788   0.60129196 
    1900    2939255.7    300.82711    -283.6173    145.86834    142.09263    141.80932     283.6173   0.60168309 
    1920    2937350.3    300.81116    62.020967    145.90396    142.03993    141.73536   -62.020967   0.60207422 
    1940    2938287.6    300.25341    -24.07683    145.93958    142.05135    141.73458     24.07683   0.60246536 
    1960    2938227.5    300.77576    39.553579     145.9752    142.05503    141.69344   -39.553579   0.60285649 
    1980    2938905.3    300.62918   -179.28881    146.01082    142.04898    141.69758    179.28881   0.60324762 
    2000    2938009.1     300.1887    -49.40429    146.04644    141.98217    141.68646     49.40429   0.60363875 
    2020    2939604.2    300.50834   -385.51436    146.08206    142.00668    141.70435    385.51436   0.60402988 
    2040    2939544.2    300.37994   -272.83029    146.11769     141.9402    141.73327    272.83029   0.60442101 
    2060    2941985.5    301.08549   -523.84367    146.15331    141.96523     141.7914    523.84367   0.60481214 
    2080      2941564    300.38649   -273.53022    146.18893    141.93005    141.77168    273.53022   0.60520328 
    2100    2940847.8    300.32437   -316.92642    146.22455    141.89565    141.73698    316.92642   0.60559441 
    2120    2941623.5    300.12752   -267.74936    146.26017    141.82727    141.80817    267.74936   0.60598554 
    2140      2941423     300.1547   -282.25785    146.29579    141.80834    141.78291    282.25785   0.60637667 
    2160    2941605.1    300.32755   -176.38027    146.33141    141.78425    141.78126    176.38027    0.6067678 
    2180      2941114    300.25561   -286.50252    146.36703    141.72774     141.7796    286.50252   0.60715893 
    2200    2941250.1    299.48131    -168.3273    146.40265    141.71486    141.76454     168.3273   0.60755006 
    2220    2941497.2    300.55371   -250.89405    146.43828    141.69646    141.76037    250.89405   0.60794119 
    2240    2941998.9    299.95765   -395.20744     146.4739    141.69256    141.75397    395.20744   0.60833233 
    2260    2940759.9    300.32164   -312.76685    146.50952    141.64101    141.71138    312.76685   0.60872346 
    2280      2941303     299.5813   -156.52077    146.54514    141.65905    141.68505    156.52077   0.60911459 
    2300    2942079.5    299.37946   -427.37354    146.58076    141.63782    141.70926    427.37354   0.60950572 
    2320      2942330    299.26479   -320.85337    146.61638    141.61749    141.70722    320.85337   0.60989685 
    2340    2942071.5    300.20999   -309.64874      146.652    141.59805    141.67981    309.64874   0.61028798 
    2360    2941883.8    299.86288   -220.51791    146.68762    141.57541    141.65902    220.51791   0.61067911 
    2380    2941475.4    300.28508   -285.60299    146.72324    141.56206    141.61832    285.60299   0.61107025 
    2400    2942322.6    300.32033   -231.81828    146.75887    141.56708    141.61969    231.81828   0.61146138 
    2420    2942455.1    300.15926   -439.95313    146.79449    141.53825    141.62055    439.95313   0.61185251 
    2440    2941729.6     299.4209   -204.39477    146.83011    141.47063    141.61894    204.39477   0.61224364 
    2460    2942845.2    300.18253   -301.12383    146.86573    141.47655    141.63236    301.12383   0.61263477 
    2480    2943398.3    299.79941   -150.72466    146.90135    141.49432    141.60685    150.72466    0.6130259 
    2500    2943003.3     299.8141   -6.6114993    146.93697    141.41532    141.63259    6.6114993   0.61341703 
    2520    2942655.8    299.67182    15.510418    146.97259    141.35436     141.6426   -15.510418   0.61380817 
    2540    2944111.9    299.67114     47.18407    147.00821    141.39001    141.64263    -47.18407    0.6141993 
    2560    2944528.2    300.03246    46.859079    147.04383    141.36044    141.65797   -46.859079   0.61459043 
    2580      2945477    299.79594   -199.29599    147.07946     141.3048    141.72508    199.29599   0.61498156 
    2600    2945348.7    299.27786   -39.303206    147.11508    141.31768    141.67167    39.303206   0.61537269 
    2620    2947285.7    299.00279   -379.80641     147.1507    141.35161    141.69651    379.80641   0.61576382 
    2640    2948379.4    299.83581   -367.47916    147.18632    141.34148    141.72494    367.47916   0.61615495 
    2660    2946755.9     299.6891   -352.95944    147.22194    141.32843    141.62571    352.95944   0.61654609 
    2680      2948481    298.70417   -419.46257    147.25756    141.34429    141.65844    419.46257   0.61693722 
    2700    2949044.6    299.34398   -460.00951    147.29318    141.29643    141.69924    460.00951   0.61732835 
    2720    2948550.2    299.05449    -205.0838     147.3288    141.29036    141.64732     205.0838   0.61771948 
    2740    2947844.3    299.68403   -248.08232    147.36442    141.29511    141.57441    248.08232   0.61811061 
    2760    2949467.7    300.35095   -189.69236    147.40005    141.30335    141.60988    189.69236   0.61850174 
    2780    2950156.5    299.54413   -218.17308    147.43567    141.31004    141.60203    218.17308   0.61889287 
    2800    2949866.2    300.16723   -236.74766    147.47129    141.30166    141.56229    236.74766   0.61928401 
    2820    2949584.3    299.92969   -104.93762    147.50691    141.26623    141.55007    104.93762   0.61967514 
    2840    2950310.6    300.43415   -137.57503    147.54253    141.26316    141.55382    137.57503   0.62006627 
    2860    2950098.2    300.47912   -171.69188    147.57815    141.25598    141.51666    171.69188    0.6204574 
    2880    2949953.9    300.34928   -132.35604    147.61377    141.21295     141.5187    132.35604   0.62084853 
    2900    2950229.5    300.68392    -93.10196    147.64939    141.22706    141.48363     93.10196   0.62123966 
    2920    2949962.7    300.80099   -42.408269    147.68501    141.22957     141.4342    42.408269   0.62163079 
    2940    2949928.8    300.24144   -141.14586    147.72063    141.19271    141.43539    141.14586   0.62202193 
    2960    2950622.5    300.94617   -250.58372    147.75626    141.20261    141.42463    250.58372   0.62241306 
    2980    2952061.4    300.42409   -277.01967    147.79188    141.23118    141.43087    277.01967   0.62280419 
    3000    2951018.8    300.31344    -314.0532     147.8275    141.21833    141.35972     314.0532   0.62319532 
    3020    2950672.2    300.42031   -156.19697    147.86312    141.19871     141.3287    156.19697   0.62358645 
    3040    2953694.4    299.97556   -412.60865    147.89874    141.27057    141.36743    412.60865   0.62397758 
    3060    2953790.6    300.24535   -424.59116    147.93436    141.28025    141.32832    424.59116   0.62436871 
    3080    2953423.2    300.44666   -401.03127    147.96998    141.22823    141.32876    401.03127   0.62475985 
    3100    2953747.5      299.939   -265.12889     148.0056    141.21441    141.32409    265.12889   0.62515098 
    3120    2953901.8    299.92574   -268.19954    148.04122    141.23627     141.2756    268.19954   0.62554211 
    3140    2954164.1    299.62848   -318.53331    148.07685    141.22918    141.26125    318.53331   0.62593324 
    3160    2954266.4    300.18233   -644.55562    148.11247    141.25286    141.20849    644.55562   0.62632437 
    3180    2955349.8    300.07433   -401.28019    148.14809    141.29691    141.18228    401.28019    0.6267155 
    3200    2955511.4    299.89169   -473.95862    148.18371    141.27806    141.17488    473.95862   0.62710663 
    3220    2955680.2    299.55655   -368.28869    148.21933    141.23818    141.18888    368.28869   0.62749776 
    3240    2955710.5    299.59449   -281.82723    148.25495    141.23469    141.15989    281.82723    0.6278889 
    3260    2956441.2    300.50647   -286.62068    148.29057    141.24339    141.15217    286.62068   0.62828003 
    3280    2956565.9    299.82804   -280.03717    148.32619    141.22501     141.1426    280.03717   0.62867116 
    3300    2956216.3    300.17319   -341.96411    148.36181     141.1944    141.12261    341.96411   0.62906229 
    3320    2957463.8     300.3347   -361.38619    148.39744    141.22195    141.12074    361.38619   0.62945342 
    3340    2957136.1    300.03532    -449.9258    148.43306    141.20837    141.08481     449.9258   0.62984455 
    3360    2956311.1    300.13812   -272.23399    148.46868    141.18343    141.03651    272.23399   0.63023568 
    3380    2957061.3    299.73752   -307.50153     148.5043    141.15078    141.07109    307.50153   0.63062682 
    3400      2958040    300.19585   -300.35724    148.53992    141.11813    141.11658    300.35724   0.63101795 
    3420    2957488.2    299.87731   -339.99653    148.57554    141.09059    141.08396    339.99653   0.63140908 
    3440    2958004.9    299.51363   -421.28176    148.61116    141.08045    141.08492    421.28176   0.63180021 
    3460    2957889.9    299.50658   -394.82618    148.64678    141.06697    141.05911    394.82618   0.63219134 
    3480    2957376.2    300.51268   -413.60405     148.6824     141.0082    141.05959    413.60405   0.63258247 
    3500    2958496.3    299.88886     -440.581    148.71803    141.01102     141.0764      440.581    0.6329736 
    3520    2958526.9    300.11487   -290.39198    148.75365     140.9409    141.11425    290.39198   0.63336474 
    3540      2958516    300.62696   -301.15058    148.78927     140.9258    141.09506    301.15058   0.63375587 
    3560    2959839.4    300.61413   -325.62144    148.82489    140.95344    141.09672    325.62144     0.634147 
    3580    2959328.6    300.49753   -328.44615    148.86051     140.9006     141.0915    328.44615   0.63453813 
    3600    2959534.4     300.2558   -284.06599    148.89613    140.87151    141.09669    284.06599   0.63492926 
    3620    2959600.9    300.73583   -246.79905    148.93175    140.84772    141.08994    246.79905   0.63532039 
    3640    2960157.7    300.30039     8.232611    148.96737    140.81643    141.11408    -8.232611   0.63571152 
    3660    2961166.3     299.4801   -151.78602    149.00299    140.82598    141.11885    151.78602   0.63610266 
    3680    2960886.7    299.58071   -168.77205    149.03861    140.81712    141.08067    168.77205   0.63649379 
    3700    2961846.8    299.71984   -366.59002    149.07424    140.81802     141.0918    366.59002   0.63688492 
    3720    2962970.4    299.84087    -375.5393    149.10986    140.83029    141.09931     375.5393   0.63727605 
    3740    2963389.7    299.62154   -488.50235    149.14548    140.83549    141.08036    488.50235   0.63766718 
    3760    2962039.9    299.43857   -232.14483     149.1811    140.84408    140.97383    232.14483   0.63805831 
    3780    2963051.2    299.18778   -285.82512    149.21672     140.8342    140.99819    285.82512   0.63844944 
    3800    2962879.5    298.91917   -239.26059    149.25234    140.80484    140.98576    239.26059   0.63884058 
    3820    2962323.1    299.34547   -340.69782    149.28796    140.77925    140.95126    340.69782   0.63923171 
    3840    2962736.4     299.1886   -303.72219    149.32358    140.79417    140.92237    303.72219   0.63962284 
    3860    2962821.7    299.77447    -477.0385     149.3592    140.78363    140.90337     477.0385   0.64001397 
    3880    2963539.7    300.46031   -460.43584    149.39483    140.80406    140.88346    460.43584    0.6404051 
    3900    2964316.5    300.19576   -539.66875    149.43045    140.80022    140.89064    539.66875   0.64079623 
    3920      2964891     299.8172   -353.87629    149.46607    140.82596    140.85861    353.87629   0.64118736 
    3940    2964015.9     300.3168   -268.36953    149.50169    140.81061    140.79883    268.36953    0.6415785 
    3960    2964950.4    300.54845   -213.53372    149.53731    140.81558     140.8047    213.53372   0.64196963 
    3980    2965650.1    300.19103   -248.57799    149.57293    140.81815    140.80182    248.57799   0.64236076 
    4000    2966329.1    300.09852   -150.54287    149.60855    140.81103    140.80765    150.54287   0.64275189 
    4020    2965669.6    299.89916   -320.25435    149.64417    140.77877    140.77508    320.25435   0.64314302 
    4040    2966227.6    300.87393   -295.49351    149.67979    140.74818    140.79865    295.49351   0.64353415 
    4060    2967028.2     300.8697    -462.0292    149.71542    140.77797    140.77335     462.0292   0.64392528 
    4080    2968360.5    300.57172   -465.36717    149.75104    140.77424     140.8068    465.36717   0.64431642 
    4100    2967837.7    300.50007   -418.31505    149.78666    140.76259    140.76016    418.31505   0.64470755 
    4120    2968007.3     300.7039   -258.10097    149.82228    140.75872    140.73861    258.10097   0.64509868 
    4140    2969632.4    300.71645   -216.51566     149.8579    140.79696    140.74396    216.51566   0.64548981 
    4160    2968331.9     300.6383   -179.38178    149.89352    140.75841    140.68741    179.38178   0.64588094 
    4180    2969216.9    300.70832    -269.6447    149.92914     140.7457    140.70863     269.6447   0.64627207 
    4200    2969850.1    300.24631   -336.21258    149.96476    140.70959    140.74131    336.21258    0.6466632 
    4220    2970292.6    299.72428    -267.5599    150.00038    140.72787    140.71058     267.5599   0.64705434 
    4240    2970937.9    299.38939   -331.37518    150.03601    140.72235    140.71326    331.37518   0.64744547 
    4260    2971423.3    299.91043   -342.32203    150.07163    140.69847    140.72671    342.32203    0.6478366 
    4280    2971341.7    300.55718   -219.45064    150.10725    140.65857    140.72936    219.45064   0.64822773 
    4300    2971188.4     300.7267   -218.90884    150.14287    140.62978    140.71753    218.90884   0.64861886 
    4320    2972323.8    300.96387   -199.09833    150.17849    140.64066    140.72702    199.09833   0.64900999 
    4340    2974223.3    299.84414   -343.80965    150.21411     140.7273    140.69689    343.80965   0.64940112 
    4360    2974287.6    300.55608    -260.4915    150.24973    140.70451    140.68935     260.4915   0.64979225 
    4380    2973882.7    299.64093   -307.25214    150.28535    140.69401    140.64736    307.25214   0.65018339 
    4400    2975180.3    300.17003   -121.75478    150.32097    140.73615    140.63326    121.75478   0.65057452 
    4420    2975408.6    299.63237   -111.71086     150.3566    140.68474    140.66212    111.71086   0.65096565 
    4440    2975619.3    300.08033   -109.25393    150.39222    140.62908    140.69442    109.25393   0.65135678 
    4460      2975439    299.56234   -121.39951    150.42784    140.58198    140.69971    121.39951   0.65174791 
    4480    2976867.7     299.6773   -153.70804    150.46346    140.62063    140.69526    153.70804   0.65213904 
    4500    2977355.3    299.29273   -270.01645    150.49908    140.64267    140.66295    270.01645   0.65253017 
    4520    2977464.6    299.89277   -251.78941     150.5347    140.63325    140.64424    251.78941   0.65292131 
    4540    2978310.1    299.75428   -219.15622    150.57032     140.6234    140.66076    219.15622   0.65331244 
    4560    2979142.5    300.55978   -232.54926    150.60594    140.62593    140.66426    232.54926   0.65370357 
    4580    2978565.5    299.57153    -258.0857    150.64156    140.58578    140.64391     258.0857    0.6540947 
    4600    2978339.6    299.83812   -110.03214    150.67718    140.57074    140.61504    110.03214   0.65448583 
    4620    2977786.5    299.82217    -252.4335    150.71281    140.54553    140.58091     252.4335   0.65487696 
    4640      2977115    299.19916    -135.7254    150.74843    140.53904    140.52249     135.7254   0.65526809 
    4660    2977474.8    299.36199   -313.13192    150.78405    140.56254    140.48279    313.13192   0.65565923 
    4680    2978046.1    299.32046   -320.30789    150.81967    140.55894    140.48015    320.30789   0.65605036 
    4700    2978595.6    300.18179   -450.44132    150.85529     140.5398    140.49202    450.44132   0.65644149 
    4720      2976874    299.98932    -327.0481    150.89091    140.44566    140.47177     327.0481   0.65683262 
    4740    2977321.9    299.52164   -376.55548    150.92653    140.46484    140.44056    376.55548   0.65722375 
    4760    2976568.9     299.8568   -235.82582    150.96215    140.44371    140.39303    235.82582   0.65761488 
    4780    2976164.7    299.62211   -196.48816    150.99777    140.40365     140.3809    196.48816   0.65800601 
    4800    2976928.7    300.05009   -266.79922     151.0334     140.4309    140.35657    266.79922   0.65839715 
    4820    2978039.4    299.62382   -316.86857    151.06902    140.45034    140.35641    316.86857   0.65878828 
    4840    2977295.3    300.23495   -318.29775    151.10464    140.41117     140.3274    318.29775   0.65917941 
    4860    2975910.4    300.06829   -361.97853    151.14026    140.36366    140.27653    361.97853   0.65957054 
    4880    2976302.6    299.88507   -432.98506    151.17588    140.31142    140.31418    432.98506   0.65996167 
    4900    2977033.6    299.97547   -485.46315     151.2115    140.31788    140.30912    485.46315    0.6603528 
    4920    2977420.5    301.13851   -503.62162    151.24712     140.3059    140.30628    503.62162   0.66074393 
    4940    2976555.8    300.32407   -456.46159    151.28274    140.25067    140.28773    456.46159   0.66113507 
    4960    2977958.4    299.84086   -317.06141    151.31836    140.27396     140.2975    317.06141    0.6615262 
    4980    2977357.6    300.00085   -337.96034    151.35399    140.22974     140.2804    337.96034   0.66191733 
    5000    2978429.7    300.46768   -82.275609    151.38961    140.23783     140.2898    82.275609   0.66230846 
    5020      2979218    301.24428    -280.0746    151.42523     140.2238    140.30796     280.0746   0.66269959 
    5040    2980567.8    300.30519   -131.50624    151.46085    140.18835    140.37401    131.50624   0.66309072 
    5060    2980925.4    300.99761   -390.67039    151.49647    140.15323    140.39302    390.67039   0.66348185 
    5080      2981433    300.36387   -411.37671    151.53209    140.16921     140.3679    411.37671   0.66387299 
    5100    2982348.8     299.9804   -419.60714    151.56771    140.18023    140.36698    419.60714   0.66426412 
    5120    2981992.8    300.23542   -403.10459    151.60333    140.16704    140.33046    403.10459   0.66465525 
    5140    2982768.7    300.17337   -354.36182    151.63895    140.14777    140.35329    354.36182   0.66504638 
    5160    2983090.6    300.15712   -294.90675    151.67458    140.15365    140.32958    294.90675   0.66543751 
    5180    2983910.2    300.45539   -302.00549     151.7102    140.15231    140.33653    302.00549   0.66582864 
    5200      2984584     299.9832   -300.29269    151.74582    140.12177    140.36585    300.29269   0.66621977 
    5220    2985656.7    299.92632    -394.3861    151.78144    140.12016    140.38496     394.3861   0.66661091 
    5240      2985710     300.0697   -278.71212    151.81706    140.09475    140.37999    278.71212   0.66700204 
    5260    2986765.9    299.33879   -353.74465    151.85268    140.14402    140.34733    353.74465   0.66739317 
    5280    2987416.1    299.21882   -336.44127     151.8883    140.18079    140.30815    336.44127    0.6677843 
    5300    2988885.3     299.6648   -479.39682    151.92392    140.21155    140.31344    479.39682   0.66817543 
    5320    2989172.8    299.38728   -412.97822    151.95954    140.16921    140.33643    412.97822   0.66856656 
    5340    2988215.7    300.12893   -331.20385    151.99516    140.11436    140.31352    331.20385   0.66895769 
    5360    2988372.9    299.71788   -202.27072    152.03079    140.12782    140.27455    202.27072   0.66934882 
    5380      2989797    299.40281   -294.99356    152.06641    140.13004     140.3063    294.99356   0.66973996 
    5400    2989642.4    300.00796   -312.70953    152.10203    140.09627    140.30001    312.70953   0.67013109 
    5420      2989807    299.80092   -314.70324    152.13765    140.10087    140.27027    314.70324   0.67052222 
    5440    2990637.3    300.08336   -421.82494    152.17327    140.13504    140.24217    421.82494   0.67091335 
    5460    2990663.3    300.96358   -474.67244    152.20889    140.13002    140.21559    474.67244   0.67130448 
    5480      2991053    299.63726   -408.24675    152.24451    140.12758    140.20349    408.24675   0.67169561 
    5500    2990567.5    299.48403    -382.5089    152.28013    140.09807    140.17746     382.5089   0.67208674 
    5520      2992154    300.00084   -459.19836    152.31575      140.097     140.2201    459.19836   0.67247788 
    5540    2992501.9    300.15376   -494.57017    152.35138    140.07942    140.22121    494.57017   0.67286901 
    5560    2992772.8    300.11033   -557.45978      152.387    140.08056    140.19999    557.45978   0.67326014 
    5580    2991614.3    300.70637   -387.89417    152.42262    140.01719    140.17638    387.89417   0.67365127 
    5600    2991527.3    300.74572   -388.91026    152.45824     140.0307    140.12603    388.91026    0.6740424 
    5620    2992033.4    301.21057   -562.27172    152.49386    140.02393    140.12378    562.27172   0.67443353 
    5640      2993204    301.67907   -593.38486    152.52948    140.01604    140.15376    593.38486   0.67482466 
    5660    2994315.2    300.23628   -719.44205     152.5651    140.01081    140.17829    719.44205    0.6752158 
    5680    2993499.3    300.53586   -429.77069    152.60072    139.97402     140.1442    429.77069   0.67560693 
    5700    2993610.2    301.31907   -391.28934    152.63634    139.97694    140.11376    391.28934   0.67599806 
    5720    2993315.7    300.66627    -340.3596    152.67197    139.93005    140.11423     340.3596   0.67638919 
    5740    2993510.8    300.83656   -265.56928    152.70759    139.90828    140.11247    265.56928   0.67678032 
    5760      2992586    300.35052   -295.53296    152.74321    139.85496    140.08991    295.53296   0.67717145 
    5780    2993158.1    300.47502   -206.95177    152.77883    139.85835    140.08063    206.95177   0.67756258 
    5800    2991980.9    300.32288    -168.4236    152.81445    139.78613    140.06522     168.4236   0.67795372 
    5820    2992251.1    300.81731   -139.97789    152.85007    139.76068    140.07073    139.97789   0.67834485 
    5840    2992629.4    300.26356   -163.72639    152.88569    139.72934    140.08721    163.72639   0.67873598 
    5860    2993062.6    300.71558   -194.11348    152.92131    139.75123    140.05291    194.11348   0.67912711 
    5880    2992993.2    299.77442   -321.49314    152.95693    139.75671    140.01156    321.49314   0.67951824 
    5900    2992779.9    300.37474   -352.95508    152.99256    139.75654    139.96915    352.95508   0.67990937 
    5920    2992800.6    300.10124   -230.35926    153.02818    139.71571    139.97843    230.35926    0.6803005 
    5940    2991920.9    299.83553   -144.04249     153.0638    139.65537    139.96517    144.04249   0.68069164 
    5960    2993151.1    300.23058   -141.04679    153.09942    139.68047    139.96499    141.04679   0.68108277 
    5980    2993869.3    300.27829   -204.90129    153.13504    139.69533    139.95112    204.90129    0.6814739 
    6000    2994721.3    299.11496   -373.17737    153.17066    139.72206    139.93161    373.17737   0.68186503 
    6020    2995889.8    300.83911   -408.96401    153.20628    139.73191    139.94381    408.96401   0.68225616 
    6040    2996510.8    300.19375   -444.63833     153.2419    139.76022    139.91193    444.63833   0.68264729 
    6060    2996145.1     299.6471   -379.19981    153.27752    139.74303    139.87955    379.19981   0.68303842 
    6080    2996953.1    299.29296   -408.31419    153.31314    139.76252    139.86525    408.31419   0.68342956 
    6100    2997599.8    300.30377   -420.17412    153.34877    139.78639    139.83905    420.17412   0.68382069 
    6120    2997896.7     300.0235   -364.42958    153.38439    139.80562     139.8012    364.42958   0.68421182 
    6140      2997700    300.15694   -332.09347    153.42001    139.75015    139.81503    332.09347   0.68460295 
    6160    2998153.8    298.77482   -115.59444    153.45563    139.72381     139.8301    115.59444   0.68499408 
    6180    2998414.7    300.34848    -116.8597    153.49125     139.6801    139.85357     116.8597   0.68538521 
    6200    2998901.5    300.12625   -180.77954    153.52687    139.70046    139.82343    180.77954   0.68577634 
    6220      3000024    299.81013   -355.76541    153.56249    139.73139    139.81237    355.76541   0.68616748 
    6240    3000534.7    300.27857   -397.21313    153.59811    139.72599    139.80915    397.21313   0.68655861 
    6260    3000906.2    300.19861   -390.64528    153.63373    139.70546    139.81458    390.64528   0.68694974 
    6280    3000577.3     300.2248   -382.32899    153.66936    139.67475    139.79758    382.32899   0.68734087 
    6300    3001054.9    299.43139   -341.49579    153.70498    139.70617    139.75598    341.49579     0.687732 
    6320    3001206.5    299.26154   -356.54956     153.7406    139.71325    139.72359    356.54956   0.68812313 
    6340      3002444    300.03813   -410.78605    153.77622    139.69809    139.76398    410.78605   0.68851426 
    6360    3002712.2    299.53372   -318.02887    153.81184    139.69071    139.75148    318.02887    0.6889054 
    6380    3004423.5    300.16098    -470.8876    153.84746    139.71926    139.77019     470.8876   0.68929653 
    6400    3005053.5    300.48352   -340.43029    153.88308    139.72194    139.76445    340.43029   0.68968766 
    6420    3005398.9    300.77904   -339.87941     153.9187    139.72519    139.74492    339.87941   0.69007879 
    6440    3007437.9     300.5305   -571.23381    153.95432    139.77026    139.76229    571.23381   0.69046992 
    6460    3007129.7    300.25069   -606.94074    153.98995    139.76432    139.72157    606.94074   0.69086105 
    6480    3007532.5    299.91857   -677.47173    154.02557    139.73556    139.73673    677.47173   0.69125218 
    6500    3007111.2    300.06413   -522.27916    154.06119    139.73325    139.68716    522.27916   0.69164331 
    6520    3006757.8    299.85571   -444.28625    154.09681    139.69355    139.67814    444.28625   0.69203445 
    6540    3007068.9     300.0245   -450.76947    154.13243    139.68198    139.67188    450.76947   0.69242558 
    6560    3008204.6    300.22693   -484.09714    154.16805    139.70808    139.66625    484.09714   0.69281671 
    6580    3007899.4    300.37487   -408.61001    154.20367    139.70176    139.62613    408.61001   0.69320784 
    6600    3008401.5    299.80439    -471.4176    154.23929    139.66564    139.65329     471.4176   0.69359897 
    6620    3007201.8    299.75434   -406.99689    154.27491    139.61398    139.61702    406.99689    0.6939901 
    6640    3007900.8    300.28644   -356.35658    154.31054    139.61823    139.61298    356.35658   0.69438123 
    6660    3008447.6    299.67478   -387.71041    154.34616    139.60557     139.6188    387.71041   0.69477237 
    6680    3008321.6    299.71436   -320.42398    154.38178    139.54856    139.63775    320.42398    0.6951635 
    6700    3008708.6     299.9125   -282.65486     154.4174    139.56042    139.61164    282.65486   0.69555463 
    6720    3009363.1    300.43246   -340.81765    154.45302    139.52561    139.64464    340.81765   0.69594576 
    6740    3009660.1     299.7103   -205.59281    154.48864    139.47792    139.67396    205.59281   0.69633689 
    6760      3008897    299.68955   -218.28329    154.52426    139.47477     139.6095    218.28329   0.69672802 
    6780    3009866.7    300.09544    -304.5962    154.55988    139.47845    139.61863     304.5962   0.69711915 
    6800    3010639.4    299.94845   -433.90252     154.5955    139.50021    139.60052    433.90252   0.69751029 
    6820    3011180.8    300.69071    -429.9277    154.63113     139.4847    139.60898     429.9277   0.69790142 
    6840    3010639.3    300.35835   -464.12379    154.66675    139.44519    139.59126    464.12379   0.69829255 
    6860    3010661.1    299.33033   -435.68052    154.70237    139.43323    139.57211    435.68052   0.69868368 
    6880    3010582.6    300.27208   -398.09689    154.73799    139.44271    139.52685    398.09689   0.69907481 
    6900    3011366.6    300.13674   -548.52432    154.77361    139.42966    139.54412    548.52432   0.69946594 
    6920      3011525    299.21614   -674.45896    154.80923    139.43738    139.51163    674.45896   0.69985707 
    6940    3011747.6    299.99299   -451.67993    154.84485    139.40381    139.52344    451.67993   0.70024821 
    6960    3011558.9    300.08428   -331.12553    154.88047    139.39938    139.48704    331.12553   0.70063934 
    6980    3011221.4    299.11474   -294.66016    154.91609    139.37367    139.46506    294.66016   0.70103047 
    7000    3011653.5    299.44056   -378.96511    154.95171    139.35835    139.46834    378.96511    0.7014216 
    7020    3012069.2     299.6396   -373.79619    154.98734    139.34185    139.47204    373.79619   0.70181273 
    7040    3012017.3    299.41558   -430.88767    155.02296    139.33604    139.44341    430.88767   0.70220386 
    7060    3012168.2    299.15772   -510.40661    155.05858    139.30841    139.44601    510.40661   0.70259499 
    7080    3012399.9    299.53616   -493.20767     155.0942    139.27021    139.46295    493.20767   0.70298613 
    7100    3012465.4    299.80082   -562.98363    155.12982    139.26058    139.44359    562.98363   0.70337726 
    7120    3014327.5    299.37543   -631.21778    155.16544    139.26087    139.49747    631.21778   0.70376839 
    7140    3014525.8    298.79144   -669.70383    155.20106    139.25245    139.48306    669.70383   0.70415952 
    7160    3014762.7    299.08004   -650.56126    155.23668    139.20749    139.50706    650.56126   0.70455065 
    7180      3014826    299.88498   -594.36097     155.2723    139.17523    139.51031    594.36097   0.70494178 
    7200    3015191.6    299.25086   -575.25305    155.30793    139.15029    139.52023    575.25305   0.70533291 
    7220    3016210.2    300.13959   -625.87765    155.34355    139.14574    139.53992    625.87765   0.70572405 
    7240    3017180.8     300.5962    -794.4688    155.37917    139.14548    139.55308     794.4688   0.70611518 
    7260    3017355.9    300.24413   -630.05342    155.41479    139.13749    139.53721    630.05342   0.70650631 
    7280    3017056.4    300.19091   -608.48559    155.45041     139.1206    139.50832    608.48559   0.70689744 
    7300    3017572.6    300.41338   -422.85078    155.48603     139.1047    139.51617    422.85078   0.70728857 
    7320    3016909.1     300.7322   -286.14196    155.52165    139.02737    139.53111    286.14196    0.7076797 
    7340    3017856.5    300.70994   -325.24023    155.55727    138.99709    139.57336    325.24023   0.70807083 
    7360    3018599.8    300.28895    -460.2533    155.59289     139.0068    139.56603     460.2533   0.70846197 
    7380    3019057.5    300.51245   -567.27863    155.62852    138.97334    139.58884    567.27863    0.7088531 
    7400    3018314.2    300.58702   -516.38224    155.66414    138.98405     139.5118    516.38224   0.70924423 
    7420      3019192    299.90277   -667.50918    155.69976     138.9821    139.52239    667.50918   0.70963536 
    7440    3019669.9    300.26991   -696.35087    155.73538    138.97733    139.51735    696.35087   0.71002649 
    7460    3019827.3    300.07004   -527.12867      155.771    138.98213     139.4879    527.12867   0.71041762 
    7480    3021080.9    300.33954   -589.41537    155.80662    138.98456    139.51146    589.41537   0.71080875 
    7500    3021229.4    299.54634   -469.40084    155.84224    138.98499      139.486    469.40084   0.71119989 
    7520      3021137    300.38298   -469.39516    155.87786     138.9924    139.44243    469.39516   0.71159102 
    7540    3021603.3    300.35757   -520.94145    155.91348    138.99439    139.43008    520.94145   0.71198215 
    7560    3021999.6    300.23207   -508.60148    155.94911    139.00069     139.4102    508.60148   0.71237328 
    7580    3021443.9    300.16864   -513.72398    155.98473    138.95571    139.39784    513.72398   0.71276441 
    7600    3021873.5    300.13988   -591.37094    156.02035    138.95397    139.38758    591.37094   0.71315554 
    7620    3021402.5    299.73947   -388.76997    156.05597    138.90493    139.38324    388.76997   0.71354667 
    7640    3022145.7     300.3215   -298.56777    156.09159    138.89439    139.39629    298.56777    0.7139378 
    7660    3022474.2    300.34339   -303.45054    156.12721    138.92306    139.35086    303.45054   0.71432894 
    7680    3023132.9    299.97513   -245.71201    156.16283    138.89843    139.37415    245.71201   0.71472007 
    7700    3023695.7    299.86196    -318.5369    156.19845    138.91181    139.35488     318.5369    0.7151112 
    7720    3024207.5     300.3155   -575.05733    156.23407     138.8948    139.36375    575.05733   0.71550233 
    7740    3024793.7    300.02111   -432.61283    156.26969     138.8861    139.36773    432.61283   0.71589346 
    7760      3024720    300.35098   -478.52892    156.30532    138.89266      139.326    478.52892   0.71628459 
    7780    3024693.9    299.75765   -474.19662    156.34094    138.86988    139.31589    474.19662   0.71667572 
    7800    3024100.2    299.52594   -238.67163    156.37656    138.81539    139.31148    238.67163   0.71706686 
    7820    3023801.2    299.85404   -276.43205    156.41218    138.79216    139.28929    276.43205   0.71745799 
    7840    3024699.2     299.2941    -130.9195     156.4478    138.76906    139.32212     130.9195   0.71784912 
    7860    3024341.4    299.11462   -218.66177    156.48342    138.78116    139.26179    218.66177   0.71824025 
    7880    3023688.2    299.86319   -415.35739    156.51904    138.74046    139.24086    415.35739   0.71863138 
    7900      3024834    299.13071   -423.27671    156.55466    138.74995    139.25241    423.27671   0.71902251 
    7920    3023940.1    299.53788   -575.89136    156.59028    138.69848    139.23123    575.89136   0.71941364 
    7940    3025977.6    299.08749   -496.68103    156.62591    138.74378    139.24788    496.68103   0.71980478 
    7960    3025710.3     299.3921   -569.64725    156.66153    138.73672      139.211    569.64725   0.72019591 
    7980    3025349.5    298.72609   -413.30325    156.69715    138.73173    139.16777    413.30325   0.72058704 
    8000    3026431.1    299.28259   -456.40312    156.73277    138.72522    139.19242    456.40312   0.72097817 
    8020    3025512.6    300.07202   -564.81244    156.76839    138.73551    139.10823    564.81244    0.7213693 
    8040    3026676.4    300.92845   -425.45252    156.80401    138.73264      139.133    425.45252   0.72176043 
    8060    3026563.5    299.96419   -400.98968    156.83963    138.70133    139.12762    400.98968   0.72215156 
    8080    3028168.2    300.86922     -428.178    156.87525    138.75867    139.11227      428.178    0.7225427 
    8100    3028990.4    300.33035   -542.02091    156.91087     138.7582    139.11892    542.02091   0.72293383 
    8120    3029138.8    300.69326   -481.29371     156.9465      138.743     139.1094    481.29371   0.72332496 
    8140    3029085.4    300.09155   -459.86312    156.98212     138.6969    139.12161    459.86312   0.72371609 
    8160    3029318.2    300.26469   -495.64612    157.01774    138.73959    139.05793    495.64612   0.72410722 
    8180    3028851.7    300.90373   -350.50697    157.05336    138.71055    139.03408    350.50697   0.72449835 
    8200    3029402.3    301.50116   -441.67134    157.08898    138.69395    139.04447    441.67134   0.72488948 
    8220    3030373.7    300.34637   -344.22484     157.1246    138.66446    139.08709    344.22484   0.72528062 
    8240    3031036.1    300.54149   -507.74911    157.16022    138.67346    139.07694    507.74911   0.72567175 
    8260    3031099.6    300.58599   -416.01634    157.19584    138.63929    139.08261    416.01634   0.72606288 
    8280    3031507.9    300.98468   -386.69582    157.23146    138.66324     139.0458    386.69582   0.72645401 
    8300      3032509    299.82969   -445.45929    157.26709    138.69076    139.03263    445.45929   0.72684514 
    8320    3032376.8    299.46092    -357.1497    157.30271    138.65011    139.03584     357.1497   0.72723627 
    8340      3033201    299.61521   -283.16962    157.33833    138.64659    139.04567    283.16962    0.7276274 
    8360    3033993.9    300.05046   -287.18755    157.37395    138.67472    139.02233    287.18755   0.72801854 
    8380    3034669.4    300.19518   -258.97326    157.40957    138.68716    139.00935    258.97326   0.72840967 
    8400    3034368.2    299.46459   -330.23834    157.44519    138.65844    138.99288    330.23834    0.7288008 
    8420    3034778.9    299.39627   -348.57475    157.48081    138.65373    138.98498    348.57475   0.72919193 
    8440    3035251.5    300.39309   -408.32881    157.51643     138.6503    138.97862    408.32881   0.72958306 
    8460    3035490.7    299.56508   -344.26492    157.55205    138.67522    138.93318    344.26492   0.72997419 
    8480    3034213.2    299.81303    -378.6791    157.58768    138.60078    138.91788     378.6791   0.73036532 
    8500    3035254.6    300.61168   -219.71739     157.6233    138.60005     138.9349    219.71739   0.73075646 
    8520    3036558.1    299.57174   -412.96969    157.65892    138.57243    138.99085    412.96969   0.73114759 
    8540    3035304.3    300.32162   -361.99125    157.69454    138.52636    138.94827    361.99125   0.73153872 
    8560    3035686.8    299.42923   -462.46036    157.73016    138.49978    138.96107    462.46036   0.73192985 
    8580    3036395.4     300.1126   -469.30692    157.76578    138.45865     139.0034    469.30692   0.73232098 
    8600    3037311.9    300.38633   -637.29017     157.8014    138.44419    139.02848    637.29017   0.73271211 
    8620    3036347.8    300.05686   -502.12242    157.83702    138.38063    139.01682    502.12242   0.73310324 
    8640    3035924.3    300.29294   -365.74805    157.87264    138.33182     139.0151    365.74805   0.73349437 
    8660    3036229.7     300.0243    -214.3331    157.90826    138.32711    139.00245     214.3331   0.73388551 
    8680    3036969.6    300.52293   -359.27315    157.94389    138.30876    139.02341    359.27315   0.73427664 
    8700    3037397.7    300.46588   -332.80032    157.97951    138.32592    138.99441    332.80032   0.73466777 
    8720    3038117.3    299.97187   -412.65003    158.01513     138.3244    138.99753    412.65003    0.7350589 
    8740    3038288.9    300.51553   -455.66007    158.05075    138.30469    138.99386    455.66007   0.73545003 
    8760    3038280.6    300.89027   -392.96074    158.08637    138.26968    138.99734    392.96074   0.73584116 
    8780    3038689.7    300.62161   -513.27694    158.12199    138.24257      139.012    513.27694   0.73623229 
    8800    3037943.8    300.82891   -515.34542    158.15761    138.24648    138.94265    515.34542   0.73662343 
    8820    3039737.4    300.93344   -525.34756    158.19323    138.26729    138.97244    525.34756   0.73701456 
    8840    3040363.2    300.94786   -541.18699    158.22885    138.27192    138.96512    541.18699   0.73740569 
    8860    3041034.1     299.8735    -394.6673    158.26448     138.2974    138.93889     394.6673   0.73779682 
    8880    3040433.6    300.42509   -435.39173     158.3001    138.23111     138.9468    435.39173   0.73818795 
    8900    3041039.7    300.43175   -320.00765    158.33572    138.25044    138.92381    320.00765   0.73857908 
    8920    3042583.7    300.17406   -316.81471    158.37134    138.30199    138.91128    316.81471   0.73897021 
    8940    3042835.7    299.81749   -369.94043    158.40696    138.28572    138.90789    369.94043   0.73936135 
    8960    3043801.9    300.40587   -340.03299    158.44258     138.2826    138.92389    340.03299   0.73975248 
    8980    3044530.2    300.02559   -309.67174     158.4782    138.29327    138.91518    309.67174   0.74014361 
    9000      3045063    299.81955   -421.92989    158.51382    138.33178     138.8696    421.92989   0.74053474 
    9020    3044169.5    299.77756   -427.19652    158.54944    138.29245    138.83713    427.19652   0.74092587 
    9040    3044580.5    299.92753   -391.24979    158.58507    138.28308    138.83409    391.24979     0.741317 
    9060    3046479.1    299.45052   -351.26836    158.62069    138.30215    138.87033    351.26836   0.74170813 
    9080    3046720.3    299.69131   -367.36209    158.65631    138.28927    138.86307    367.36209   0.74209927 
    9100    3046606.1    299.82443   -228.12424    158.69193    138.29894    138.81698    228.12424    0.7424904 
    9120    3047906.5      299.397   -250.56857    158.72755    138.31256     138.8314    250.56857   0.74288153 
    9140    3048248.7    299.40753   -327.53013    158.76317    138.29329    138.83517    327.53013   0.74327266 
    9160    3047438.9    299.76464   -322.48523    158.79879    138.29899    138.76144    322.48523   0.74366379 
    9180    3047782.1    299.98594   -440.41772    158.83441    138.28575    138.75922    440.41772   0.74405492 
    9200    3049403.3    299.92634   -538.64358    158.87003    138.32316    138.76437    538.64358   0.74444605 
    9220    3049219.8    300.30324   -553.12787    158.90566    138.31345    138.73466    553.12787   0.74483719 
    9240    3050022.8    299.81531   -621.03034    158.94128    138.31752      138.736    621.03034   0.74522832 
    9260    3051020.1    300.40689   -467.61457     158.9769    138.34377    138.72395    467.61457   0.74561945 
    9280    3051677.8    300.04028   -536.37644    159.01252    138.35847    138.70804    536.37644   0.74601058 
    9300    3050985.8    300.07801   -404.72119    159.04814    138.35038    138.65363    404.72119   0.74640171 
    9320    3050807.4    300.41952   -564.66476    159.08376    138.33978    138.62509    564.66476   0.74679284 
    9340    3052386.4    300.92583   -431.50653    159.11938    138.34887    138.65668    431.50653   0.74718397 
    9360    3051210.2    300.48925    -418.6287      159.155    138.28806    138.63317     418.6287   0.74757511 
    9380    3051900.5    300.81622    -498.3354    159.19062    138.31078    138.61074     498.3354   0.74796624 
    9400    3053191.7    300.53461   -388.80267    159.22624    138.35369    138.59536    388.80267   0.74835737 
    9420    3052586.2    300.45587   -443.45728    159.26187    138.30737    138.58328    443.45728    0.7487485 
    9440    3052692.2    300.82584   -496.39361    159.29749    138.30196    138.56252    496.39361   0.74913963 
    9460    3052621.5    300.44425   -566.98578    159.33311    138.30708     138.5232    566.98578   0.74953076 
    9480    3052486.1    300.52875   -465.98589    159.36873    138.26753    138.52571    465.98589   0.74992189 
    9500    3052488.1    300.72045   -557.44744    159.40435    138.25788    138.50451    557.44744   0.75031303 
    9520    3052609.3    300.30163   -616.22634    159.43997    138.25559    138.48136    616.22634   0.75070416 
    9540    3054016.3    300.76693   -522.78913    159.47559    138.27839    138.49141    522.78913   0.75109529 
    9560    3054302.2    300.28963   -758.94043    159.51121    138.26578    138.48607    758.94043   0.75148642 
    9580    3052942.2    300.00887   -537.51339    159.54683    138.20303    138.45633    537.51339   0.75187755 
    9600    3054056.2    300.27706   -675.68883    159.58246    138.20759    138.47137    675.68883   0.75226868 
    9620      3054633     300.3194   -553.81124    159.61808     138.2284    138.44577    553.81124   0.75265981 
    9640    3054178.2    299.80066   -462.70039     159.6537    138.21502    138.40767    462.70039   0.75305095 
    9660    3054400.9    300.47961   -584.27263    159.68932    138.22885    138.37304    584.27263   0.75344208 
    9680    3055724.3    300.49391   -489.71685    159.72494    138.24077    138.39019    489.71685   0.75383321 
    9700      3055486    299.65205   -575.86988    159.76056    138.23338    138.35593    575.86988   0.75422434 
    9720    3055007.7    300.10148   -399.68683    159.79618     138.1372    138.39974    399.68683   0.75461547 
    9740    3055794.1    300.44801   -418.02436     159.8318    138.09626    138.44555    418.02436    0.7550066 
    9760    3056407.9    300.13361   -369.36191    159.86742    138.14085    138.39781    369.36191   0.75539773 
    9780    3056435.5    300.55492   -292.16379    159.90305    138.12222    138.38689    292.16379   0.75578886 
    9800    3057033.3    299.90708   -461.71392    159.93867    138.14148    138.36384    461.71392      0.75618 
    9820    3057558.1    300.74835   -317.55043    159.97429    138.13309    138.36518    317.55043   0.75657113 
    9840    3057445.7    299.95269   -396.41904    160.00991    138.10009    138.36235    396.41904   0.75696226 
    9860      3058560      299.981   -412.56993    160.04553    138.07733    138.40477    412.56993   0.75735339 
    9880    3059403.5    300.15276   -451.22819    160.08115    138.07672    138.41275    451.22819   0.75774452 
    9900    3059495.9    300.29867   -538.28261    160.11677    138.04686    138.41607    538.28261   0.75813565 
    9920    3060121.8    298.77101   -619.64822    160.15239    138.07367    138.38672    619.64822   0.75852678 
    9940    3059931.7    299.89788   -497.17291    160.18801    138.05785     138.3632    497.17291   0.75891792 
    9960    3059833.2    299.75642   -435.10866    160.22364    138.07289    138.31292    435.10866   0.75930905 
    9980    3058946.1    299.73207   -419.61323    160.25926    138.00567    138.30942    419.61323   0.75970018 
   10000    3059654.4    299.32509    -342.8398    160.29488    137.98517    138.33125     342.8398   0.76009131 
   10020    3060234.1    298.92077   -345.79178     160.3305    137.95014    138.36185    345.79178   0.76048244 
   10040    3058733.6    299.82578   -226.68368    160.36612    137.89877    138.31479    226.68368   0.76087357 
   10060    3058892.3    299.55665   -307.30963    160.40174    137.86633    138.32379    307.30963    0.7612647 
   10080    3060294.9    299.44338    -392.7902    160.43736    137.86534    138.35749     392.7902   0.76165584 
   10100    3060546.8    300.08154   -562.61603    160.47298    137.86305    138.34046    562.61603   0.76204697 
   10120    3060085.8    299.48592   -571.40943     160.5086     137.8237    138.32841    571.40943    0.7624381 
   10140    3060989.7    299.93074   -655.58333    160.54422    137.80163    138.36073    655.58333   0.76282923 
   10160    3062304.3    299.30639    -711.5417    160.57985     137.8043    138.38676     711.5417   0.76322036 
   10180    3061084.8    299.73489   -716.95055    160.61547    137.78111    138.32425    716.95055   0.76361149 
   10200    3061678.2    300.65946   -672.62964    160.65109    137.76007    138.34151    672.62964   0.76400262 
   10220    3062441.7    300.70526    -631.6497    160.68671    137.77085    138.33451     631.6497   0.76439376 
   10240    3062528.5    300.32353   -547.02546    160.72233    137.73348     138.3453    547.02546   0.76478489 
   10260      3063360     300.3576   -549.16677    160.75795    137.71774    138.36801    549.16677   0.76517602 
   10280    3064423.9    300.46872   -479.16515    160.79357    137.73472    138.36833    479.16515   0.76556715 
   10300    3064805.9    301.00086   -412.00197    160.82919    137.76903    138.32047    412.00197   0.76595828 
   10320    3064569.3     299.9641   -424.14168    160.86481    137.74259    138.30572    424.14168   0.76634941 
   10340    3066129.2    301.02233   -375.61625    160.90044    137.76412    138.32387    375.61625   0.76674054 
   10360    3066168.9    300.20049   -432.73742    160.93606    137.74185    138.31739    432.73742   0.76713168 
   10380    3065866.7     300.7305    -522.0625    160.97168    137.70024    138.31495     522.0625   0.76752281 
   10400    3065985.4    300.33076   -457.31354     161.0073     137.7197    138.27015    457.31354   0.76791394 
   10420    3067937.7    299.98985   -469.92389    161.04292    137.73674    138.31048    469.92389   0.76830507 
   10440    3068542.5    300.59265   -485.20342    161.07854     137.7195    138.32447    485.20342    0.7686962 
   10460    3067895.3    300.23409   -528.01839    161.11416    137.68821    138.29614    528.01839   0.76908733 
   10480    3069436.2    300.36111   -587.00932    161.14978    137.75518    138.26776    587.00932   0.76947846 
   10500    3069954.9    300.32988   -655.80382     161.1854    137.70372    138.31223    655.80382    0.7698696 
   10520    3069083.8     300.0602   -687.18501    161.22103    137.65768    138.28867    687.18501   0.77026073 
   10540    3069203.3    300.00126   -427.47189    161.25665    137.65484    138.26637    427.47189   0.77065186 
   10560    3069626.1    300.00918   -267.95685    161.29227    137.64424    138.26552    267.95685   0.77104299 
   10580    3071349.2    300.16161   -295.28674    161.32789    137.65941    138.29734    295.28674   0.77143412 
   10600    3071595.7    299.51433   -358.07081    161.36351    137.67006    138.26721    358.07081   0.77182525 
   10620    3071815.1    299.77245   -416.95317    161.39913    137.63285    138.28395    416.95317   0.77221638 
   10640    3073475.4    299.63737   -533.31498    161.43475    137.62889    138.33214    533.31498   0.77260752 
   10660    3073070.7      299.295   -554.46612    161.47037    137.61551    138.29686    554.46612   0.77299865 
   10680    3074281.7    299.49186   -622.88458    161.50599    137.61993     138.3164    622.88458   0.77338978 
   10700    3075373.9    299.58367   -584.39957    161.54162    137.65655    138.29823    584.39957   0.77378091 
   10720    3074989.5    300.05361   -564.56876    161.57724    137.63139    138.27573    564.56876   0.77417204 
   10740    3075454.9    299.45526   -520.45827    161.61286    137.61768    138.27995    520.45827   0.77456317 
   10760    3076666.8    300.29888   -641.25309    161.64848    137.61517    138.30648    641.25309    0.7749543 
   10780    3076533.2    300.20874   -575.70181     161.6841    137.59998    138.28527    575.70181   0.77534544 
   10800    3075974.3    300.48877   -516.31891    161.71972    137.59148    138.23824    516.31891   0.77573657 
   10820    3076842.8    300.01713   -572.63878    161.75534    137.60088    138.23737    572.63878    0.7761277 
   10840    3078174.1    300.08913   -680.74249    161.79096     137.6285    138.23899    680.74249   0.77651883 
   10860    3078072.8     300.3303   -578.63671    161.82658    137.60124    138.23139    578.63671   0.77690996 
   10880    3077621.6    300.81298   -656.83092    161.86221    137.57785     138.2042    656.83092   0.77730109 
   10900    3077693.1    299.90351   -619.20647    161.89783    137.57955     138.1753    619.20647   0.77769222 
   10920    3077711.7    300.95923   -601.10652    161.93345    137.56803    138.15731    601.10652   0.77808335 
   10940    3078961.6    300.97631   -495.56219    161.96907    137.57942    138.17157    495.56219   0.77847449 
   10960    3079188.4    301.16727   -652.03141    162.00469    137.54202    138.18894    652.03141   0.77886562 
   10980      3080229    300.39882   -510.89713    162.04031    137.57056    138.17658    510.89713   0.77925675 
   11000    3080547.4     300.7926   -602.32318    162.07593    137.58807     138.1429    602.32318   0.77964788 
   11020      3080841    300.79181   -401.79046    162.11155    137.58376    138.13005    401.79046   0.78003901 
   11040    3081365.9    300.51021   -450.44171    162.14717    137.55299    138.15413    450.44171   0.78043014 
   11060    3081859.5     300.9196    -479.6834    162.18279    137.57098    138.12784     479.6834   0.78082127 
   11080    3082217.4    300.23143   -464.75624    162.21842    137.57195    138.11257    464.75624   0.78121241 
   11100    3083007.1    299.82412   -451.65551    162.25404    137.57853    138.11102    451.65551   0.78160354 
   11120    3084072.8    300.33671   -534.82489    162.28966    137.59508    138.11183    534.82489   0.78199467 
   11140    3084309.8    299.47102   -683.20936    162.32528    137.59616    138.09104    683.20936    0.7823858 
   11160    3085362.5    300.51481   -663.59646     162.3609    137.61709    138.08687    663.59646   0.78277693 
   11180    3084653.3    300.63055   -511.97623    162.39652     137.5947    138.04731    511.97623   0.78316806 
   11200    3085107.9    299.58349   -469.28071    162.43214    137.61214    138.01987    469.28071   0.78355919 
   11220    3085170.9    299.57446    -390.7607    162.46776    137.57363    138.03106     390.7607   0.78395033 
   11240    3085995.9    299.84532   -412.37771    162.50338    137.56976    138.04159    412.37771   0.78434146 
   11260      3085417    300.04127   -342.27267    162.53901    137.51469    138.04071    342.27267   0.78473259 
   11280    3085526.5    299.59192    -556.4598    162.57463    137.52786    138.00214     556.4598   0.78512372 
   11300    3086912.9    299.89596   -532.64536    162.61025    137.52734    138.03443    532.64536   0.78551485 
   11320    3087082.8    299.79801   -519.82464    162.64587    137.51987    138.01929    519.82464   0.78590598 
   11340    3087067.7     299.2871   -648.65059    162.68149    137.50975    137.99855    648.65059   0.78629711 
   11360    3087659.1    299.92563   -566.30808    162.71711     137.4816    138.02303    566.30808   0.78668825 
   11380    3087914.1    299.49669   -626.90832    162.75273    137.42443    138.06163    626.90832   0.78707938 
   11400    3088225.8    300.70808   -526.15092    162.78835    137.42367    138.04611    526.15092   0.78747051 
   11420    3088306.1    299.17213    -507.4611    162.82397    137.40616    138.03708     507.4611   0.78786164 
   11440    3087770.3    299.66993   -425.03567     162.8596    137.39275    137.99642    425.03567   0.78825277 
   11460      3088859    299.77267   -392.51499    162.89522    137.41247    137.99509    392.51499    0.7886439 
   11480    3088025.2    300.20084   -355.12419    162.93084    137.39256    137.94766    355.12419   0.78903503 
   11500    3088508.1    299.64301   -410.95779    162.96646    137.44198    137.88947    410.95779   0.78942617 
   11520      3088826    299.55017   -624.29617    163.00208    137.40077    137.91489    624.29617    0.7898173 
   11540    3089373.7    299.27454   -465.35464     163.0377     137.4099    137.90004    465.35464   0.79020843 
   11560    3089809.9    299.65847   -493.26015    163.07332    137.40292    137.89639    493.26015   0.79059956 
   11580    3089406.4    299.58437   -379.47605    163.10894    137.36683    137.88449    379.47605   0.79099069 
   11600    3090244.3    299.22794   -463.73546    163.14456    137.40341    137.85505    463.73546   0.79138182 
   11620    3090781.1    299.03461   -507.59877    163.18019    137.42391    137.82834    507.59877   0.79177295 
   11640    3091071.2    299.70677    -684.2222    163.21581    137.40061    137.83456     684.2222   0.79216409 
   11660      3090930    299.67167   -634.18005    163.25143     137.4299    137.76882    634.18005   0.79255522 
   11680    3091364.1    299.31203   -745.80839    163.28705    137.41487    137.77318    745.80839   0.79294635 
   11700    3089941.5    299.78759   -648.32752    163.32267    137.33858    137.75623    648.32752   0.79333748 
   11720    3090000.6    299.70337   -639.06829    163.35829    137.32681    137.74063    639.06829   0.79372861 
   11740    3091014.5    299.83546   -618.11396    163.39391    137.34523    137.73731    618.11396   0.79411974 
   11760    3090265.6    300.03207   -645.93884    163.42953    137.32932    137.68987    645.93884   0.79451087 
   11780    3088639.5    299.70202   -539.24043    163.46515    137.26038    137.65654    539.24043   0.79490201 
   11800    3088996.6    300.08729     -535.204    163.50077    137.26195    137.64089      535.204   0.79529314 
   11820      3088627     300.5176   -417.97579     163.5364    137.25063    137.60578    417.97579   0.79568427 
   11840    3088210.9    300.53542   -541.38315    163.57202    137.25262    137.55529    541.38315    0.7960754 
   11860    3088859.7    300.76078   -507.94754    163.60764     137.2586    137.54824    507.94754   0.79646653 
   11880    3088792.3    300.39566   -421.11591    163.64326    137.24833    137.52559    421.11591   0.79685766 
   11900    3089384.5    301.35854   -286.93129    163.67888    137.23997     137.5304    286.93129   0.79724879 
   11920    3089305.7    300.68185   -328.75643     163.7145    137.26163    137.47527    328.75643   0.79763992 
   11940    3090761.6    300.28527   -378.91443    163.75012    137.25441    137.51738    378.91443   0.79803106 
   11960    3091769.6     300.2631   -444.91324    163.78574    137.26848    137.51821    444.91324   0.79842219 
   11980    3091628.9      300.502   -420.63289    163.82136    137.25822    137.49233    420.63289   0.79881332 
   12000    3091366.3    300.25232   -418.14804    163.85699    137.25398      137.455    418.14804   0.79920445 
   12020      3093093    300.98636   -438.00709    163.89261    137.26165    137.49421    438.00709   0.79959558 
   12040    3093081.7    299.86725   -401.46161    163.92823    137.26982    137.45564    401.46161   0.79998671 
   12060    3091860.8    299.72254    -296.6172    163.96385    137.24246    137.39892     296.6172   0.80037784 
   12080    3093206.5    300.22679    -369.0181    163.99947    137.27277    137.39853     369.0181   0.80076898 
   12100    3094017.1    300.09408    -409.6605    164.03509     137.2688    137.40867     409.6605   0.80116011 
   12120    3094351.2    299.70572   -425.52754    164.07071    137.26304    137.39943    425.52754   0.80155124 
   12140    3094781.6    300.17756    -429.1381    164.10633    137.26836    137.38338     429.1381   0.80194237 
   12160    3095099.9    300.14334   -415.14647    164.14195    137.22125    137.41486    415.14647    0.8023335 
   12180    3095477.4    300.13431   -351.42264    164.17758    137.23259    137.39045    351.42264   0.80272463 
   12200    3095033.6     300.6828   -377.81156     164.2132    137.20511    137.36846    377.81156   0.80311576 
   12220    3095563.3    299.91607   -352.52646    164.24882    137.18713    137.38018    352.52646    0.8035069 
   12240    3097125.7    300.21953   -403.85056    164.28444    137.23191    137.37487    403.85056   0.80389803 
   12260    3097028.6    299.91464   -359.37419    164.32006    137.23513    137.33756    359.37419   0.80428916 
   12280      3097419    299.88897   -518.41896    164.35568    137.20168    137.35858    518.41896   0.80468029 
   12300    3098062.2    299.96286   -549.03527     164.3913    137.22409    137.33491    549.03527   0.80507142 
   12320      3098586    299.54681   -618.97132    164.42692    137.21326    137.33921    618.97132   0.80546255 
   12340    3099143.3    299.71893   -503.39206    164.46254    137.20537    137.34205    503.39206   0.80585368 
   12360    3099656.3     300.1037   -398.45189    164.49817    137.21317    137.32724    398.45189   0.80624482 
   12380    3100421.5    299.65364   -397.90402    164.53379    137.24641    137.29814    397.90402   0.80663595 
   12400    3100494.8    300.02433   -454.75931    164.56941    137.21134    137.30675    454.75931   0.80702708 
   12420    3101273.6    300.08791   -501.40556    164.60503    137.21764    137.30521    501.40556   0.80741821 
   12440    3101231.1    300.05809   -429.10363    164.64065    137.16864    137.32267    429.10363   0.80780934 
   12460    3101460.2    299.65566   -496.02759    164.67627    137.14406    137.32771    496.02759   0.80820047 
   12480    3101587.7    300.15396   -472.35559    164.71189     137.1344    137.31333    472.35559    0.8085916 
   12500    3102543.4    299.96016   -516.73028    164.74751     137.1653    137.29501    516.73028   0.80898274 
   12520    3102970.1    299.79554   -468.56582    164.78313    137.15548    137.29404    468.56582   0.80937387 
   12540    3103243.6    299.83956   -354.58315    164.81876     137.1658    137.26613    354.58315     0.809765 
   12560    3103204.6     299.3162   -363.01876    164.85438    137.14487    137.25569    363.01876   0.81015613 
   12580    3103875.2    299.98239   -151.94681       164.89    137.10508    137.29553    151.94681   0.81054726 
   12600    3105375.9    300.26582   -417.84044    164.92562    137.16347    137.27378    417.84044   0.81093839 
   12620      3106016    299.89791   -435.06939    164.96124    137.14441    137.29151    435.06939   0.81132952 
   12640    3107033.3    299.81926   -575.37783    164.99686    137.16571     137.2855    575.37783   0.81172066 
   12660      3107302    300.18589   -695.18656    165.03248    137.15939    137.27406    695.18656   0.81211179 
   12680    3107673.2    299.66538   -643.48002     165.0681    137.13202    137.28823    643.48002   0.81250292 
   12700    3107775.1    300.30309   -645.93891    165.10372    137.12679    137.26834    645.93891   0.81289405 
   12720    3108162.1    300.18565   -572.40921    165.13934    137.13276    137.24985    572.40921   0.81328518 
   12740    3108712.3    300.07927   -532.08127    165.17497     137.1016    137.27573    532.08127   0.81367631 
   12760    3109610.9    299.95163   -546.42058    165.21059    137.15906    137.22829    546.42058   0.81406744 
   12780    3109752.2    300.06571   -576.33215    165.24621    137.14112     137.2229    576.33215   0.81445858 
   12800    3109788.2    300.47399   -524.64648    165.28183    137.13167    137.20437    524.64648   0.81484971 
   12820    3110618.7    300.99419   -557.00299    165.31745    137.16157    137.18152    557.00299   0.81524084 
   12840    3110702.2    301.47161   -524.87769    165.35307    137.14333     137.1739    524.87769   0.81563197 
   12860    3110562.9    300.83888   -328.72562    165.38869    137.10471    137.17684    328.72562    0.8160231 
   12880    3110804.4     300.6287   -424.17241    165.42431    137.14088    137.12178    424.17241   0.81641423 
   12900    3111856.9    300.70548   -479.48351    165.45993    137.16888    137.11064    479.48351   0.81680536 
   12920    3111936.8     300.3781   -569.10196    165.49556    137.15652    137.09701    569.10196    0.8171965 
   12940    3112689.3    300.25688    -670.5942    165.53118    137.18253    137.07465     670.5942   0.81758763 
   12960    3113361.7    300.94693   -600.02613     165.5668    137.18415    137.07315    600.02613   0.81797876 
   12980    3112190.9    300.22853   -498.95647    165.60242    137.16261    137.01364    498.95647   0.81836989 
   13000    3112098.8    299.95665   -487.63827    165.63804     137.1563    136.98643    487.63827   0.81876102 
   13020    3111531.8    300.04533   -393.30214    165.67366    137.11591    136.97236    393.30214   0.81915215 
[...]
   76760    4345084.2    299.58437    40.189521    279.19806    124.51224    124.98956   -40.189521    2.0656879 
   76780    4346686.3    299.33479    16.562441    279.23368    124.50538    125.02659   -16.562441    2.0660791 
   76800    4347650.9    299.86061   -53.790857     279.2693    124.46522    125.07873    53.790857    2.0664702 
   76820    4349517.1    299.90039   -80.890066    279.30492    124.49281    125.08873    80.890066    2.0668613 
   76840    4351311.8    299.41638   -52.784096    279.34054     124.5315    125.08552    52.784096    2.0672525 
   76860    4351957.2    299.31566   -121.83089    279.37616    124.53731    125.08228    121.83089    2.0676436 
   76880    4352559.5    299.51935    -90.42161    279.41178    124.52597    125.09503     90.42161    2.0680347 
   76900    4352504.3    299.71909    -54.38817     279.4474    124.52476    125.07872     54.38817    2.0684259 
   76920    4353601.3    299.87671   -148.54498    279.48302    124.51459    125.10451    148.54498     2.068817 
   76940    4354240.4    299.82426   -100.20021    279.51865    124.50209    125.11949    100.20021    2.0692081 
   76960    4354391.6    300.26238   -117.43424    279.55427    124.50597    125.10399    117.43424    2.0695992 
   76980    4357175.1    300.52267   -140.22064    279.58989    124.57389    125.09978    140.22064    2.0699904 
   77000    4358793.7    301.01653   -132.36494    279.62551    124.58203    125.12212    132.36494    2.0703815 
   77020    4358814.5    300.55463   -136.21102    279.66113    124.57989    125.10894    136.21102    2.0707726 
   77040    4360089.1    300.36747   -208.78146    279.69675    124.59592    125.11349    208.78146    2.0711638 
   77060    4359861.3    300.67541   -195.43212    279.73237    124.55967    125.12742    195.43212    2.0715549 
   77080    4359512.2    301.03752   -179.47793    279.76799    124.54845    125.11274    179.47793     2.071946 
   77100      4360276    300.42723   -159.61285    279.80361    124.54298    125.12423    159.61285    2.0723372 
   77120      4360854    300.29525   -203.64798    279.83923    124.55835    125.10945    203.64798    2.0727283 
   77140    4362419.7    301.24673   -247.48545    279.87486    124.55394    125.14287    247.48545    2.0731194 
   77160    4363341.3    300.76108   -212.97454    279.91048    124.58916    125.11799    212.97454    2.0735106 
   77180    4363369.9    300.54734   -134.73395     279.9461    124.58938    125.10267    134.73395    2.0739017 
   77200    4363095.5    299.88152    52.049674    279.98172    124.56761    125.10075   -52.049674    2.0742928 
   77220    4363003.7    301.10625   -43.916465    280.01734    124.57031    125.07949    43.916465     2.074684 
   77240    4364104.4    300.26487    -103.1812    280.05296     124.6144    125.05087     103.1812    2.0750751 
   77260    4366283.2    300.06728   -172.04755    280.08858    124.61805    125.09373    172.04755    2.0754662 
   77280    4368762.4    299.95545   -194.98182     280.1242    124.66916    125.09754    194.98182    2.0758573 
   77300    4369182.5    300.04876   -163.06868    280.15982    124.68327     125.0795    163.06868    2.0762485 
   77320    4369404.5    299.69616    23.035839    280.19545    124.65048    125.10285   -23.035839    2.0766396 
   77340    4370511.7    300.21644   -116.05193    280.23107    124.64531    125.12384    116.05193    2.0770307 
   77360    4371127.6    299.44601   -37.605529    280.26669    124.70245    125.06823    37.605529    2.0774219 
   77380    4371966.3    299.81676   -82.068901    280.30231    124.68555    125.09329    82.068901     2.077813 
   77400    4373454.8    300.20986   -197.20665    280.33793    124.66839     125.1372    197.20665    2.0782041 
   77420    4373762.2    299.30356   -173.61311    280.37355    124.68841       125.11    173.61311    2.0785953 
   77440    4372502.6    300.38045   -84.510744    280.40917    124.69141    125.05508    84.510744    2.0789864 
   77460    4371679.3     299.6519   -155.81476    280.44479    124.66554    125.04159    155.81476    2.0793775 
   77480    4372428.3    299.86415   -85.903979    280.48041    124.65433    125.05837    85.903979    2.0797687 
   77500    4373440.9    300.14845    -163.5758    280.51604    124.65161    125.07419     163.5758    2.0801598 
   77520    4373400.6    300.18498   -175.22478    280.55166     124.6264    125.08245    175.22478    2.0805509 
   77540    4373293.4    299.70887    -142.5405    280.58728    124.64823     125.0416     142.5405    2.0809421 
   77560    4374524.4    299.79044   -196.43293     280.6229    124.63294    125.07627    196.43293    2.0813332 
   77580    4376354.9    300.00046   -216.31419    280.65852    124.63073    125.11494    216.31419    2.0817243 
   77600    4377437.3    300.41744   -258.47213    280.69414    124.64348     125.1172    258.47213    2.0821155 
   77620      4379077    300.51519   -260.05088    280.72976    124.64982    125.14182    260.05088    2.0825066 
   77640    4379944.9    300.53652    -309.7936    280.76538    124.63303    125.16761     309.7936    2.0828977 
   77660      4381339    300.37811   -216.22765      280.801    124.67361    125.15081    216.22765    2.0832888 
   77680    4381970.2    300.16848   -169.57254    280.83663    124.68228    125.14426    169.57254      2.08368 
   77700    4381380.2    300.08403   -105.21341    280.87225    124.66338    125.13051    105.21341    2.0840711 
   77720    4382228.3    300.83345   -86.869869    280.90787    124.71774    125.08432    86.869869    2.0844622 
   77740    4385184.1    301.08202   -144.47222    280.94349    124.76905    125.10135    144.47222    2.0848534 
   77760    4385200.5    300.47774    -156.3624    280.97911    124.71529    125.13987     156.3624    2.0852445 
   77780    4385037.4    301.06053   -253.39524    281.01473    124.68543    125.14932    253.39524    2.0856356 
   77800    4385801.2    300.74093   -161.06025    281.05035    124.66959    125.17116    161.06025    2.0860268 
   77820    4386500.2    300.10401    -74.18059    281.08597    124.66439    125.18046     74.18059    2.0864179 
   77840    4387071.5    300.35276   -182.39637    281.12159    124.64053    125.20486    182.39637     2.086809 
   77860    4387470.2    299.82426   -151.54906    281.15721    124.62996    125.21101    151.54906    2.0872002 
   77880    4388521.5    300.21517   -137.99869    281.19284     124.6784    125.17649    137.99869    2.0875913 
   77900      4388810     299.8976   -150.69959    281.22846    124.69083    125.15639    150.69959    2.0879824 
   77920      4387194    299.46954     -119.383    281.26408    124.65948    125.12591      119.383    2.0883736 
   77940    4386736.5    299.81025   -109.41878     281.2997    124.63053    125.12608    109.41878    2.0887647 
   77960      4389787    300.19703   -110.72538    281.33532    124.66284    125.16479    110.72538    2.0891558 
   77980    4390023.5    300.29031   -195.36264    281.37094    124.67288     125.1456    195.36264    2.0895469 
   78000    4389985.1    300.05275   -106.79145    281.40656     124.6673    125.13427    106.79145    2.0899381 
   78020    4390190.1    299.95762   -51.339499    281.44218    124.66251    125.12908    51.339499    2.0903292 
   78040    4389680.9    299.75587   -6.4760632     281.4778    124.63138    125.12998    6.4760632    2.0907203 
   78060    4391576.5    299.89815   -60.208887    281.51343    124.64451      125.155    60.208887    2.0911115 
   78080      4392968    299.76555   -139.24002    281.54905    124.67453    125.14867    139.24002    2.0915026 
   78100    4394302.9    300.15977   -107.42522    281.58467    124.69374    125.15158    107.42522    2.0918937 
   78120    4395527.1    299.23533   -130.19052    281.62029    124.67164     125.1928    130.19052    2.0922849 
   78140    4395275.6    300.12807   -156.57007    281.65591    124.66927    125.17219    156.57007     2.092676 
   78160    4395967.9    299.72452   -86.969598    281.69153    124.64889    125.19653    86.969598    2.0930671 
   78180    4398360.1    300.85526    -123.0141    281.72715    124.68686    125.21068     123.0141    2.0934583 
   78200      4400373    300.78119   -156.33235    281.76277    124.70341    125.23553    156.33235    2.0938494 
   78220    4401153.4    300.66597   -116.17087    281.79839    124.70654    125.23876    116.17087    2.0942405 
   78240    4403064.2    300.50316   -178.05464    281.83402    124.72362    125.26014    178.05464    2.0946317 
   78260    4404894.7    300.96266   -252.74149    281.86964    124.73822    125.28172    252.74149    2.0950228 
   78280      4404824    300.39742   -205.24708    281.90526     124.7617     125.2403    205.24708    2.0954139 
   78300    4406301.8    300.80454   -326.11788    281.94088    124.76582    125.26236    326.11788     2.095805 
   78320      4408402    300.67334   -335.70738     281.9765    124.76613    125.30591    335.70738    2.0961962 
   78340    4410769.8    300.67914    -316.4758    282.01212    124.80291    125.32044     316.4758    2.0965873 
   78360    4411419.8    300.71294   -301.47473    282.04774    124.81831    125.30761    301.47473    2.0969784 
   78380    4410349.8    300.51748    -215.4848    282.08336    124.78901    125.29081     215.4848    2.0973696 
   78400    4411176.8    300.31205   -148.06649    282.11898    124.84209    125.24521    148.06649    2.0977607 
   78420    4412148.8    300.39652   -173.53807    282.15461    124.84438     125.2547    173.53807    2.0981518 
   78440      4412166    300.85024   -153.08038    282.19023    124.83652    125.24726    153.08038     2.098543 
   78460    4411157.8    300.03219   -198.88658    282.22585    124.82934    125.21004    198.88658    2.0989341 
   78480    4412369.9    299.93074   -156.81751    282.26147    124.82401    125.23398    156.81751    2.0993252 
   78500    4411823.5    300.01213   -91.385594    282.29709    124.81141    125.21532    91.385594    2.0997164 
   78520    4411979.1    300.30059   -95.918366    282.33271    124.84175     125.1735    95.918366    2.1001075 
   78540    4411631.9    299.76295   -90.524178    282.36833    124.82476     125.1649    90.524178    2.1004986 
   78560    4411103.8    300.33612   -68.069648    282.40395    124.79482    125.16414    68.069648    2.1008898 
   78580    4413403.2    300.16952   -208.33827    282.43957    124.85396    125.15428    208.33827    2.1012809 
   78600      4412095    299.80358    -193.5768     282.4752    124.84862    125.10676     193.5768     2.101672 
   78620    4411978.8    299.76717   -164.21837    282.51082     124.8495    125.08681    164.21837    2.1020632 
   78640    4412455.4    299.81713   -217.87338    282.54644    124.85442    125.07962    217.87338    2.1024543 
   78660    4413111.4     300.1463   -100.32331    282.58206    124.85193    125.08495    100.32331    2.1028454 
   78680    4412729.9    300.20633    -36.61517    282.61768    124.84905    125.06125     36.61517    2.1032365 
   78700      4414839    300.11857   -145.32081     282.6533    124.88296    125.07129    145.32081    2.1036277 
   78720    4415956.8    299.41961   -82.103248    282.68892    124.85847    125.11173    82.103248    2.1040188 
   78740    4414393.5    299.10446   -55.634387    282.72454    124.82189    125.08832    55.634387    2.1044099 
   78760    4414968.6    299.76038   -75.461539    282.76016    124.80936    125.10142    75.461539    2.1048011 
   78780    4416016.8    300.59831   -156.79465    282.79578    124.80903     125.1157    156.79465    2.1051922 
   78800    4417045.7     300.0166   -185.62849    282.83141    124.79269    125.14547    185.62849    2.1055833 
   78820    4417947.9    299.71418   -234.57092    282.86703     124.7919    125.15605    234.57092    2.1059745 
   78840    4418988.7     299.6695   -262.67597    282.90265    124.83623    125.12533    262.67597    2.1063656 
   78860    4419049.7    299.79772    -217.5933    282.93827    124.83106    125.11649     217.5933    2.1067567 
   78880      4420803     299.5381   -316.09027    282.97389    124.82382    125.15763    316.09027    2.1071479 
   78900    4420063.8     299.6142   -283.24983    283.00951    124.81597    125.12882    283.24983     2.107539 
   78920    4420560.8    298.69964   -272.35907    283.04513    124.80186    125.14129    272.35907    2.1079301 
   78940    4422203.3    299.36303   -267.49917    283.08075    124.81625     125.1576    267.49917    2.1083213 
   78960    4421067.3    298.86533   -175.56484    283.11637    124.78705    125.13899    175.56484    2.1087124 
   78980    4419722.1    299.01982   -158.20384      283.152    124.79632    125.07587    158.20384    2.1091035 
   79000    4420270.2    299.80406   -177.62723    283.18762    124.81359    125.05835    177.62723    2.1094946 
   79020    4419572.5    299.72646   -237.09524    283.22324    124.79437    125.04214    237.09524    2.1098858 
   79040      4419532    299.45591   -174.87834    283.25886    124.81216    125.00744    174.87834    2.1102769 
   79060    4418789.5    299.48562   -222.67782    283.29448    124.74941    125.03359    222.67782     2.110668 
   79080    4420483.7    299.42609   -202.34823     283.3301    124.76305    125.05213    202.34823    2.1110592 
   79100      4421285    300.61681   -210.76114    283.36572    124.81874    125.00327    210.76114    2.1114503 
   79120    4420066.1     299.6857   -187.08055    283.40134     124.7986    124.97327    187.08055    2.1118414 
   79140    4422370.3    299.79738   -157.68016    283.43696    124.81087    125.01042    157.68016    2.1122326 
   79160    4423288.5    300.32184   -173.65105    283.47259    124.82821    125.00329    173.65105    2.1126237 
   79180    4425186.1     300.9499   -150.04724    283.50821    124.85335    125.01604    150.04724    2.1130148 
   79200    4425989.2      300.395   -157.87545    283.54383    124.83404    125.04235    157.87545     2.113406 
   79220    4428276.7    300.01194   -205.04793    283.57945    124.85719    125.06806    205.04793    2.1137971 
   79240    4429416.1     301.0724   -172.77422    283.61507     124.9035    125.03816    172.77422    2.1141882 
   79260    4429243.8    300.66196    -220.4411    283.65069    124.92396    124.99712     220.4411    2.1145794 
   79280    4429936.1    299.94242   -188.89542    283.68631    124.91463    125.01029    188.89542    2.1149705 
   79300    4431270.6    299.83284   -259.64829    283.72193    124.93495    125.01191    259.64829    2.1153616 
   79320    4433823.1    300.33055   -248.26828    283.75755    124.95513    125.04802    248.26828    2.1157528 
   79340    4433974.4    300.28057   -195.14024    283.79318    124.96111    125.03061    195.14024    2.1161439 
   79360    4433676.8    299.81523   -136.89617     283.8288    124.98499    124.98265    136.89617     2.116535 
   79380    4433631.2    299.48955     -129.101    283.86442     124.9818    124.96886      129.101    2.1169261 
   79400      4434028    299.89333   -140.75438    283.90004    124.96345    124.98272    140.75438    2.1173173 
   79420    4433865.8    300.12514   -131.63398    283.93566     124.9629    124.96302    131.63398    2.1177084 
   79440    4434166.6    299.99024   -199.18463    283.97128    124.93098    124.98775    199.18463    2.1180995 
   79460    4433100.7     300.4824   -98.328689     284.0069    124.93712    124.93589    98.328689    2.1184907 
   79480      4433624    300.18021   -153.40818    284.04252    124.93021    124.94187    153.40818    2.1188818 
   79500    4432775.2    299.34019   -210.91662    284.07814    124.92243    124.91007    210.91662    2.1192729 
   79520    4432735.9    299.71352   -224.29962    284.11376    124.95042    124.86533    224.29962    2.1196641 
   79540    4434306.5    300.15185   -272.46997    284.14939    124.96107    124.88327    272.46997    2.1200552 
   79560    4433383.4    300.62474   -252.37274    284.18501    124.94644    124.85624    252.37274    2.1204463 
   79580    4433267.2    300.50213   -160.90184    284.22063    124.91896    124.86478    160.90184    2.1208375 
   79600    4434751.7    299.96223   -213.84657    284.25625     124.9154     124.8945    213.84657    2.1212286 
   79620    4434721.6    299.76783    -107.3744    284.29187    124.92315    124.87026     107.3744    2.1216197 
   79640    4433934.9    299.97635   -68.745068    284.32749    124.91557    124.84004    68.745068    2.1220109 
   79660    4434843.6     300.0573   -131.57726    284.36311    124.90926    124.85629    131.57726     2.122402 
   79680    4434371.8    300.16827   -153.52173    284.39873    124.90027    124.83636    153.52173    2.1227931 
   79700    4435189.2     300.1709   -157.37431    284.43435    124.89631    124.84768    157.37431    2.1231842 
   79720    4434536.8    299.78516   -302.59504    284.46998     124.8913     124.8187    302.59504    2.1235754 
   79740    4436627.9    300.27149   -300.47397     284.5056    124.86497    124.88825    300.47397    2.1239665 
   79760    4437612.2    300.27236   -295.39001    284.54122     124.8467     124.9186    295.39001    2.1243576 
   79780      4436624    300.89829   -151.29086    284.57684    124.82028    124.90158    151.29086    2.1247488 
   79800    4437143.9    300.49511   -24.823436    284.61246    124.80631    124.91456    24.823436    2.1251399 
   79820    4438389.5    300.90221   -98.832983    284.64808    124.82533    124.91495    98.832983     2.125531 
   79840    4439312.7    300.30929   -138.71124     284.6837    124.82702    124.92361    138.71124    2.1259222 
   79860    4439780.9    300.16292   -62.650399    284.71932    124.78202     124.9662    62.650399    2.1263133 
   79880    4440392.9    300.25849   -145.76758    284.75494     124.7768    124.97302    145.76758    2.1267044 
   79900      4440982    299.36429   -150.16036    284.79057    124.78295    124.96782    150.16036    2.1270956 
   79920    4442424.3    299.93327   -120.51022    284.82619    124.76469    125.01105    120.51022    2.1274867 
   79940    4442644.2    299.77961   -160.07406    284.86181     124.7391    125.02726    160.07406    2.1278778 
   79960    4443124.3    300.00298   -164.17246    284.89743    124.73348    125.03076    164.17246     2.128269 
   79980    4442944.6    299.99511   -102.32534    284.93305    124.72835    125.01522    102.32534    2.1286601 
   80000    4444455.1     299.8973   -32.477262    284.96867    124.72578    125.04467    32.477262    2.1290512 
Loop time of 14671.6 on 64 procs for 80000 steps with 212040 atoms

Performance: 0.471 ns/day, 50.943 hours/ns, 5.453 timesteps/s
99.4% CPU use with 64 MPI tasks x 1 OpenMP threads

MPI task timing breakdown:
Section |  min time  |  avg time  |  max time  |%varavg| %total
---------------------------------------------------------------
Pair    | 1713.8     | 3436.4     | 4946.5     |1211.3 | 23.42
Bond    | 161.34     | 317.26     | 400.81     | 281.5 |  2.16
Kspace  | 1390.8     | 2985.8     | 4864.6     |1390.7 | 20.35
Neigh   | 7502.2     | 7531.9     | 7557.7     |  20.2 | 51.34
Comm    | 233.46     | 271.22     | 309.11     | 134.8 |  1.85
Output  | 3.9699     | 4.0617     | 4.2007     |   1.9 |  0.03
Modify  | 105.96     | 116.82     | 129.71     |  56.3 |  0.80
Other   |            | 8.18       |            |       |  0.06

Nlocal:        3313.12 ave        5075 max         799 min
Histogram: 7 3 5 12 2 1 2 2 14 16
Nghost:        16622.1 ave       23673 max        7893 min
Histogram: 5 15 9 3 0 0 0 0 8 24
Neighs:    1.78923e+06 ave 3.20588e+06 max      163143 min
Histogram: 7 4 10 8 1 3 1 8 17 5

Total # of neighbors = 1.1451048e+08
Ave neighs/atom = 540.04188
Ave special neighs/atom = 5.9990568
Neighbor list builds = 80000
Dangerous builds not checked
Total wall time: 4:04:37
