LAMMPS (29 Oct 2020)
OMP_NUM_THREADS environment is not set. Defaulting to 1 thread. (../comm.cpp:94)
  using 1 OpenMP thread(s) per MPI task
####################################################
#    This program is free software: you can redistribute it and/or modify
#    it under the terms of the GNU General Public License as published by
#    the Free Software Foundation, either version 3 of the License, or
#    (at your option) any later version.
#
#    This program is distributed in the hope that it will be useful,
#    but WITHOUT ANY WARRANTY; without even the implied warranty of
#    MERCHANTABILITY or FITNESS FOR A PARTICULAR PURPOSE.  See the
#    GNU General Public License for more details.


units		real        ## defines the units style used herein. More information: https://docs.lammps.org/units.html
atom_style	full        ## defines the atom style used herein. More information: https://docs.lammps.org/atom_style.html

# Styles
pair_style      lj/cut/coul/long 15.0 10.0      ## sets the formula(s) LAMMPS uses to compute pairwise interactions; here, lennard-jones (LJ) with long-range Coulomb interaction. More: https://docs.lammps.org/pair_lj_cut_coul.html
pair_modify     shift no                        ## the shift keyword determines whether a Lennard-Jones potential is shifted at its cutoff to 0.0. More: https://docs.lammps.org/pair_modify.html
kspace_style    pppm 1.0e-4                     ## defines a long-range solver for LAMMPS to compute long-range Coulombic interactions. Note: requires use of a matching pair style, i.e. PPPM with coul/long. More: https://docs.lammps.org/kspace_style.html
bond_style      harmonic                        ## defined based off the forcefield used to construct the system; models the atoms' interactions
angle_style     harmonic
dihedral_style  opls
improper_style  cvff
special_bonds   lj 0 0 1 coul 0 0 1

read_data       500K_TRP.lmps      ## input lammps datafile, equilibriated until structure nears experimental properties
Reading data file ...
  orthogonal box = (228.36200 228.36200 228.36200) to (371.63800 371.63800 371.63800)
  4 by 4 by 4 MPI processor grid
  reading atoms ...
  212040 atoms
  reading velocities ...
  212040 velocities
  scanning bonds ...
  2 = max bonds/atom
  scanning angles ...
  6 = max angles/atom
  scanning dihedrals ...
  15 = max dihedrals/atom
  scanning impropers ...
  2 = max impropers/atom
  reading bonds ...
  236020 bonds
  reading angles ...
  399920 angles
  reading dihedrals ...
  615800 dihedrals
  reading impropers ...
  127960 impropers
Finding 1-2 1-3 1-4 neighbors ...
  special bond factors lj:    0.0      0.0      1.0     
  special bond factors coul:  0.0      0.0      1.0     
     4 = max # of 1-2 neighbors
    10 = max # of 1-3 neighbors
    14 = max # of special neighbors
  special bonds CPU = 1.944 seconds
  read_data CPU = 3.976 seconds

dielectric      1.0
neighbor    	1.0 bin
neigh_modify	delay 0 every 1 check no        ## this is to make sure that the neighbor list is updated every timestep, and the atoms don't get lost as the system is being deformed ##

timestep	    1.0                             ## unit = fs, per "real" unit style
run_style       verlet                          ## defines algorithm used for simulation computation; verlet integration is a numerical method used to integrate Newton's equations of motion.

variable stress equal press*-1                         ## computes stress as the negative of press values
variable engStrain equal (lx-91.07191)/91.07191      ## computes engineering strain; lx_0 must be found and inputted manually (for now)

thermo		    20                                                               ## output log data (headers in thermo_style), recorded at every timestep in numList.txt
thermo_style    custom step vol temp press lx ly lz v_stress v_engStrain         ## data headers of output log file. More: https://docs.lammps.org/thermo_style.html

################# Deformation ##################

fix 1 all npt temp 500 500 100 y 1 1 100.0 z 1 1 100.0      ## stress normal to the x direction can vary; external pressure (y and z) = 1atm ##

fix 2 all deform 1 x scale 2.0 remap x                      ## sets a uniaxial (x-direction) deformation in motion, scaling a set amount (here, 4.0x) the initial length


################# Dumping ##################

reset_timestep 0

dump dump2 all custom 2000 sim.lammpstrj id mol type q xs ys zs ix iy iz

restart 4000 PMP.restart

run 		40000              ## this depends on the overall strain rate, where strain rate = deformScale / runTimeSteps (consider units!)
PPPM initialization ...
WARNING: System is not charge neutral, net charge = 0.034008 (../kspace.cpp:313)
  using 12-bit tables for long-range coulomb (../kspace.cpp:328)
  G vector (1/distance) = 0.2076702
  grid = 40 40 40
  stencil order = 5
  estimated absolute RMS force accuracy = 0.028649168
  estimated relative force accuracy = 8.6276118e-05
  using double precision FFTW3
  3d grid and FFT values/proc = 3375 1000
Neighbor list info ...
  update every 1 steps, delay 0 steps, check no
  max neighbors/atom: 2000, page size: 100000
  master list distance cutoff = 16
  ghost atom cutoff = 16
  binsize = 8, bins = 18 18 18
  1 neighbor lists, perpetual/occasional/extra = 1 0 0
  (1) pair lj/cut/coul/long, perpetual
      attributes: half, newton on
      pair build: half/bin/newton
      stencil: half/bin/3d/newton
      bin: standard
Per MPI rank memory allocation (min/avg/max) = 37.37 | 39.09 | 39.74 Mbytes
Step Volume Temp Press Lx Ly Lz v_stress v_engStrain 
       0    2941171.5    500.13023    13851.199      143.276      143.276      143.276   -13851.199   0.57321835 
      20    2963345.1    509.56262    1530.5617    143.34764    143.80357    143.75468   -1530.5617   0.57400496 
      40    2984409.8    505.49635     977.9318    143.41928    144.28081     144.2256    -977.9318   0.57479157 
      60    2980601.9    507.73324     9.344514    143.49091    144.16152     144.0888    -9.344514   0.57557818 
      80    2975519.9    506.04912   -373.46164    143.56255    143.99039    143.94221    373.46164   0.57636479 
     100    2975276.1    506.22257    -569.2694    143.63419    143.90935    143.93965     569.2694    0.5771514 
     120      2973792    504.59456   -1227.9088    143.70583    143.81854    143.88693    1227.9088     0.577938 
     140    2968987.8    504.28232   -1119.3738    143.77747    143.66976    143.73158    1119.3738   0.57872461 
     160      2963251     503.9451   -869.99959     143.8491     143.5134    143.53864    869.99959   0.57951122 
     180    2965087.6    505.68632    -1167.012    143.92074    143.51967    143.54984     1167.012   0.58029783 
     200    2961384.5    504.54791   -100.17441    143.99238    143.37724    143.44158    100.17441   0.58108444 
     220    2963309.8     503.6903   -258.77359    144.06402    143.38714    143.45356    258.77359   0.58187105 
     240    2964170.2    503.20952    464.94811    144.13566    143.36125    143.44979   -464.94811   0.58265766 
     260    2959476.6    501.77038    1082.5924    144.20729    143.17746    143.33526   -1082.5924   0.58344427 
     280      2962122    501.53627    719.51323    144.27893    143.14298    143.42669   -719.51323   0.58423088 
     300    2963200.5    502.89658   -501.39884    144.35057    143.09553    143.45526    501.39884   0.58501749 
     320    2962350.7    504.19959    450.62988    144.42221    143.01603    143.42266   -450.62988    0.5858041 
     340    2964275.5    500.90085   -983.22037    144.49385    143.02456    143.43614    983.22037   0.58659071 
     360      2963294    501.06736   -556.62924    144.56548    142.94609    143.39627    556.62924   0.58737731 
     380    2964378.7    501.18041   -57.377022    144.63712    142.93261    143.39123    57.377022   0.58816392 
     400      2965418    500.37247   -331.61099    144.70876    142.88435    143.41891    331.61099   0.58895053 
     420    2966739.3    499.69943   -404.44316     144.7804    142.90105    143.39506    404.44316   0.58973714 
     440    2965643.3    501.29824    245.37791    144.85204    142.82629    143.34619   -245.37791   0.59052375 
     460      2966633     500.2766   -152.62215    144.92367    142.77256    143.37708    152.62215   0.59131036 
     480    2966634.2    499.67931    157.84144    144.99531    142.72612    143.35293   -157.84144   0.59209697 
     500    2966715.2    499.12558    389.09299    145.06695    142.70268    143.30959   -389.09299   0.59288358 
     520    2967656.3    499.82876    288.47495    145.13859    142.70276    143.28421   -288.47495   0.59367019 
     540    2971541.8    499.99651   -235.63943    145.21023    142.71437    143.38936    235.63943    0.5944568 
     560    2974027.4      499.014    -516.8052    145.28186    142.74604    143.40671     516.8052   0.59524341 
     580      2972455    499.64507   -253.05687     145.3535    142.65252    143.35417    253.05687   0.59603002 
     600    2973628.5    499.41331   -434.92289    145.42514    142.66372    143.32887    434.92289   0.59681662 
     620    2975202.7    498.46764   -526.77625    145.49678    142.64672    143.35122    526.77625   0.59760323 
     640    2973698.5    500.12993     53.27697    145.56842    142.54634    143.30908    -53.27697   0.59838984 
     660      2974213    499.33682   -167.75038    145.64005    142.53674    143.27302    167.75038   0.59917645 
     680      2973706    499.22658    128.46466    145.71169    142.50021    143.21487   -128.46466   0.59996306 
     700    2975861.2     498.8768   -380.02103    145.78333    142.53089    143.21741    380.02103   0.60074967 
     720    2975306.6    499.99566   -138.05654    145.85497     142.4803     143.1712    138.05654   0.60153628 
     740    2974534.5    500.29534   -220.28584    145.92661    142.42304     143.1213    220.28584   0.60232289 
     760    2975432.3    500.68887    132.95824    145.99824    142.39196    143.12548   -132.95824    0.6031095 
     780    2976422.6    499.79435   -345.16138    146.06988    142.36924    143.12574    345.16138   0.60389611 
     800      2977124    499.65435   -177.71511    146.14152    142.35275    143.10587    177.71511   0.60468272 
     820    2977750.5    501.71096   -585.42867    146.21316    142.36945    143.04907    585.42867   0.60546933 
     840    2977773.2    499.64435   -723.29366     146.2848    142.34926    143.00038    723.29366   0.60625593 
     860    2977503.6    500.71098   -320.58363    146.35643    142.32456    142.94225    320.58363   0.60704254 
     880    2976000.1    499.78691   -135.99071    146.42807    142.26005    142.86493    135.99071   0.60782915 
     900    2976379.4    501.35702   -50.484833    146.49971    142.24193    142.83146    50.484833   0.60861576 
     920    2978577.1    500.20386   -360.00123    146.57135     142.2601    142.84882    360.00123   0.60940237 
     940    2978847.5    501.27363   -243.06469    146.64299    142.22721    142.82502    243.06469   0.61018898 
     960    2979975.5    500.18035   -154.50237    146.71462    142.20682    142.82981    154.50237   0.61097559 
     980    2980551.2    502.31757   -63.899978    146.78626    142.21215    142.78234    63.899978    0.6117622 
    1000    2981521.9    501.04639   -8.5228178     146.8579     142.1647    142.80681    8.5228178   0.61254881 
    1020    2984653.2    499.19888   -375.92076    146.92954    142.21661    142.83493    375.92076   0.61333542 
    1040    2984629.4    498.50197   -382.15991    147.00118    142.16186    142.81917    382.15991   0.61412203 
    1060    2986191.7     499.1537   -373.28596    147.07281    142.13197    142.85436    373.28596   0.61490864 
    1080    2987514.4    498.71677   -135.70515    147.14445    142.11524    142.86487    135.70515   0.61569524 
    1100    2988101.8    498.64755   -27.222975    147.21609    142.10211    142.83662    27.222975   0.61648185 
    1120    2988866.4    500.63498  -0.75225133    147.28773    142.10136    142.80444   0.75225133   0.61726846 
    1140    2990162.2    500.37018   -555.18272    147.35937    142.10277    142.79548    555.18272   0.61805507 
    1160    2990494.8    499.17854   -434.44908      147.431    142.09726     142.7475    434.44908   0.61884168 
    1180    2989485.2    499.34139   -246.14872    147.50264    142.01067    142.71697    246.14872   0.61962829 
    1200      2989736    499.54376   -229.28236    147.57428    141.98245    142.68801    229.28236    0.6204149 
    1220    2990418.4     499.7202   -305.61521    147.64592    141.99551    142.63822    305.61521   0.62120151 
    1240    2991905.2    499.78638   -519.44459    147.71756    141.99787    142.63756    519.44459   0.62198812 
    1260    2991164.8    500.30676   -343.79665    147.78919    141.94767    142.58354    343.79665   0.62277473 
    1280    2990511.7    500.33192    -20.81161    147.86083    141.94903    142.48198     20.81161   0.62356134 
    1300    2991614.7    500.03567   -143.14078    147.93247    141.96865    142.44581    143.14078   0.62434795 
    1320    2992326.4    500.29941   -125.44933    148.00411    141.96221     142.4172    125.44933   0.62513455 
    1340    2991647.1    500.37443   -250.94494    148.07575    141.91377    142.36456    250.94494   0.62592116 
    1360    2991308.9    499.74368   -280.27649    148.14738    141.82798     142.3657    280.27649   0.62670777 
    1380    2992112.5    499.19873   -400.10054    148.21902    141.86224    142.30074    400.10054   0.62749438 
    1400      2991398    500.36066   -214.72901    148.29066    141.86921    142.19105    214.72901   0.62828099 
    1420    2991090.7    500.78952   -527.61268     148.3623    141.86637    142.11063    527.61268    0.6290676 
    1440    2991374.9    500.71603   -445.13959    148.43394    141.79892    142.12312    445.13959   0.62985421 
    1460    2992682.4    499.07833   -380.24984    148.50557    141.78317    142.13243    380.24984   0.63064082 
    1480    2994145.5    500.36353   -289.67648    148.57721    141.74801    142.16861    289.67648   0.63142743 
    1500    2994661.1    500.21219   -179.05697    148.64885     141.7039    142.16881    179.05697   0.63221404 
    1520    2995207.6    500.03316   -125.29874    148.72049    141.68146    142.14877    125.29874   0.63300065 
    1540    2997277.2      499.056    114.98019    148.79213    141.75846    142.10127   -114.98019   0.63378726 
    1560    2997079.9    501.04002   -29.846208    148.86376    141.72845    142.05362    29.846208   0.63457386 
    1580      2996939    500.02364   -407.81535     148.9354    141.66084    142.04637    407.81535   0.63536047 
    1600    2997611.8    499.87136   -443.96872    149.00704    141.64935    142.02147    443.96872   0.63614708 
    1620    2998574.8    499.39582   -592.08925    149.07868    141.64006    142.00814    592.08925   0.63693369 
    1640    2999609.4    499.08178   -370.45844    149.15032    141.66047    141.96845    370.45844    0.6377203 
    1660    2999311.6    499.98312   -552.58158    149.22195    141.58998    141.95685    552.58158   0.63850691 
    1680    3000058.7    499.34285   -384.92874    149.29359    141.58333    141.93074    384.92874   0.63929352 
    1700    3000065.4    498.88647   -384.67595    149.36523    141.57577    141.87056    384.67595   0.64008013 
    1720    2999556.6    499.21818   -125.86556    149.43687    141.53583    141.81851    125.86556   0.64086674 
    1740      2998969    498.82706   -115.82612    149.50851    141.47913    141.77958    115.82612   0.64165335 
    1760    2998985.4     499.1367    -164.3281    149.58014    141.45351    141.73812     164.3281   0.64243996 
    1780    3000968.1    500.12949    -294.6427    149.65178    141.44745    141.77001     294.6427   0.64322657 
    1800      3002443    500.97474   -539.96049    149.72342    141.41944     141.7999    539.96049   0.64401318 
    1820    3003336.1    500.12477   -253.03816    149.79506    141.38347    141.81032    253.03816   0.64479978 
    1840    3003396.9    497.95044   -342.60299     149.8667    141.31104    141.81804    342.60299   0.64558639 
    1860    3002793.4    499.95056   -224.65813    149.93833    141.24352    141.78955    224.65813     0.646373 
    1880    3004367.5    499.38773   -437.04779    150.00997    141.18499    141.85492    437.04779   0.64715961 
    1900    3005140.5    499.99999   -603.86597    150.08161    141.18059    141.82811    603.86597   0.64794622 
    1920    3004508.8    499.47187   -385.27654    150.15325    141.14553    141.76585    385.27654   0.64873283 
    1940    3006364.2    498.20112   -415.00924    150.22489    141.12595    141.80542    415.00924   0.64951944 
    1960    3007583.9    500.51065   -417.55756    150.29652    141.12533    141.79595    417.55756   0.65030605 
    1980    3008445.9    499.01582   -342.71671    150.36816    141.13786    141.75643    342.71671   0.65109266 
    2000    3008375.8    498.91207    -161.4916     150.4398    141.11838    141.70519     161.4916   0.65187927 
    2020    3010444.7    498.94052   -488.12015    150.51144    141.12977    141.72371    488.12015   0.65266588 
    2040      3010531     499.6998   -477.15019    150.58308    141.10321    141.68701    477.15019   0.65345249 
    2060    3010318.7    498.72019   -392.15856    150.65471    141.06196    141.65106    392.15856   0.65423909 
    2080    3011588.6    500.01179   -410.28887    150.72635    141.01608    141.68955    410.28887    0.6550257 
    2100    3012069.1    500.67616   -365.06868    150.79799    141.02294    141.63794    365.06868   0.65581231 
    2120    3012381.3    499.82753   -399.99086    150.86963    141.04878    141.55942    399.99086   0.65659892 
    2140      3013112    498.32015   -488.38028    150.94127    141.01932    141.55613    488.38028   0.65738553 
    2160    3013783.5    498.70817   -455.43558     151.0129    141.00754    141.53233    455.43558   0.65817214 
    2180    3012845.4    500.75717   -157.99443    151.08454    140.97654    141.45229    157.99443   0.65895875 
    2200    3012535.1    500.27303   -269.09213    151.15618    140.96576     141.3815    269.09213   0.65974536 
    2220    3012826.5    500.80163   -231.00519    151.22782    140.95737     141.3366    231.00519   0.66053197 
    2240    3015596.1    500.55252   -346.76971    151.29946    140.98018    141.37667    346.76971   0.66131858 
    2260    3015109.9    502.51852   -304.78231    151.37109    140.93883    141.32843    304.78231   0.66210519 
    2280    3015321.8    501.70274   -408.42543    151.44273    140.92587     141.2845    408.42543    0.6628918 
    2300    3016353.8    501.83555    -390.2413    151.51437    140.93194    141.25995     390.2413    0.6636784 
    2320    3016938.2    500.61659   -488.48071    151.58601    140.86675     141.2859    488.48071   0.66446501 
    2340    3017528.8    502.03062   -470.66571    151.65765    140.86215    141.25141    470.66571   0.66525162 
    2360    3016876.6    500.91394   -143.03863    151.72928    140.87113    141.14521    143.03863   0.66603823 
    2380    3018447.8    502.05502   -201.98856    151.80092    140.87416    141.14904    201.98856   0.66682484 
    2400    3018908.6    501.16805   -346.88657    151.87256    140.83798    141.14025    346.88657   0.66761145 
    2420    3018877.3    499.68957   -384.29127     151.9442    140.83498    141.07525    384.29127   0.66839806 
    2440    3019822.9    500.21804    -335.8475    152.01584    140.85379     141.0341     335.8475   0.66918467 
    2460    3020750.3    501.17782   -149.83205    152.08747     140.8157     141.0491    149.83205   0.66997128 
    2480    3019944.4    501.22352   -222.46579    152.15911    140.77615    140.98467    222.46579   0.67075789 
    2500    3022362.3    500.23883   -440.03464    152.23075     140.8466    140.96061    440.03464    0.6715445 
    2520    3023724.2    501.58576   -579.20163    152.30239    140.89861    140.90576    579.20163   0.67233111 
    2540    3022753.4    499.73362   -549.69125    152.37403    140.78606    140.90686    549.69125   0.67311771 
    2560    3022020.1    500.08074   -241.37977    152.44566    140.72869    140.86388    241.37977   0.67390432 
    2580    3022216.9    500.46954   -96.274853     152.5173    140.68046    140.85515    96.274853   0.67469093 
    2600    3024638.8    500.38969   -458.08722    152.58894    140.68248    140.89982    458.08722   0.67547754 
    2620    3024564.2    501.46839   -508.69418    152.66058    140.64565     140.8671    508.69418   0.67626415 
    2640    3024223.2    501.24193   -258.61768    152.73222    140.61196    140.81889    258.61768   0.67705076 
    2660    3024899.4    498.87406   -208.91405    152.80385     140.5467    140.84971    208.91405   0.67783737 
    2680    3025849.1     499.5027   -147.14669    152.87549    140.54416    140.83046    147.14669   0.67862398 
    2700    3026606.2    499.52952   -342.35937    152.94713    140.52879    140.81511    342.35937   0.67941059 
    2720    3028235.7     500.1001   -497.85262    153.01877    140.57413    140.77955    497.85262    0.6801972 
    2740    3027987.8    499.64672    -382.2816    153.09041    140.51234    140.76403     382.2816   0.68098381 
    2760    3027701.4    499.64999   -199.29439    153.16204    140.45292     140.7444    199.29439   0.68177042 
    2780    3028075.7    501.44689   -18.787505    153.23368    140.45942    140.68948    18.787505   0.68255702 
    2800      3030268    499.89286   -226.50217    153.30532     140.4227    140.76235    226.50217   0.68334363 
    2820    3031939.8    499.49387    -419.1924    153.37696    140.41668    140.78025     419.1924   0.68413024 
    2840    3033724.4    500.54755    -553.6072     153.4486    140.40967    140.80438     553.6072   0.68491685 
    2860    3034942.8    500.03591   -578.69501    153.52023    140.34712    140.85795    578.69501   0.68570346 
    2880    3033585.6     500.0947   -463.55697    153.59187    140.27244    140.80422    463.55697   0.68649007 
    2900    3033834.5    499.57496    -330.5231    153.66351    140.28788    140.73463     330.5231   0.68727668 
    2920    3035055.4    499.16166   -389.27641    153.73515    140.28256      140.731    389.27641   0.68806329 
    2940    3036407.9    499.13595   -229.23879    153.80679    140.23908    140.77177    229.23879    0.6888499 
    2960      3037301    499.29778   -393.43866    153.87842    140.19608    140.79079    393.43866   0.68963651 
    2980      3038905    498.86446   -346.49571    153.95006    140.19435    140.80133    346.49571   0.69042312 
    3000      3040662    499.20079   -306.60815     154.0217     140.2019    140.80962    306.60815   0.69120973 
    3020    3041890.6    499.42854   -451.91764    154.09334    140.21066    140.79223    451.91764   0.69199633 
    3040    3041736.6    498.97137   -606.30984    154.16498    140.16191    140.76863    606.30984   0.69278294 
    3060    3042801.7    497.81763   -613.76298    154.23661     140.1519    140.76257    613.76298   0.69356955 
    3080    3044252.7    498.37551   -615.87098    154.30825    140.21112    140.70486    615.87098   0.69435616 
    3100    3043913.9    499.47752   -255.40108    154.37989    140.14871    140.68654    255.40108   0.69514277 
    3120    3045340.6    500.49647   -194.38757    154.45153    140.09222    140.74392    194.38757   0.69592938 
    3140    3046591.2    498.51288   -302.45937    154.52317    140.04069    140.78823    302.45937   0.69671599 
    3160    3045890.3    500.01475   -308.64141     154.5948    140.00412    140.72736    308.64141    0.6975026 
    3180    3045190.2    500.79122   -174.15516    154.66644    139.96862    140.66551    174.15516   0.69828921 
    3200    3045720.9    500.53605   -202.51781    154.73808    139.93787     140.6558    202.51781   0.69907582 
    3220    3046058.3    499.76779   -235.64146    154.80972    139.91656     140.6277    235.64146   0.69986243 
    3240    3047096.2    501.63833   -521.66389    154.88136    139.93263     140.5944    521.66389   0.70064904 
    3260      3048603     501.4015   -536.65986    154.95299    139.90017    140.63152    536.65986   0.70143564 
    3280    3048532.9    500.99489   -511.56991    155.02463    139.88439    140.57916    511.56991   0.70222225 
    3300    3047802.1    500.42506   -439.46437    155.09627      139.824    140.54121    439.46437   0.70300886 
    3320    3047617.7    500.39565   -288.24414    155.16791    139.75299     140.5392    288.24414   0.70379547 
    3340    3049363.6    500.22034   -279.73395    155.23955    139.76355     140.5442    279.73395   0.70458208 
    3360    3049198.7    501.69862   -173.84598    155.31118    139.73156    140.50394    173.84598   0.70536869 
    3380    3050517.1    501.32703   -343.24501    155.38282    139.71417    140.51737    343.24501    0.7061553 
    3400    3050366.8    501.47063   -328.81346    155.45446     139.6438    140.51646    328.81346   0.70694191 
    3420    3051144.4    501.17498   -427.26264     155.5261    139.63834    140.49303    427.26264   0.70772852 
    3440    3052012.7    501.03147   -467.17365    155.59774    139.59537    140.51155    467.17365   0.70851513 
    3460    3052949.8    499.20742    -516.5687    155.66937    139.56572    140.51986     516.5687   0.70930174 
    3480    3055286.2    500.63652    -493.1482    155.74101    139.59429    140.53394     493.1482   0.71008835 
    3500    3055132.4    500.68164   -384.51748    155.81265    139.56043    140.49634    384.51748   0.71087495 
    3520    3056198.1    500.96788   -372.76877    155.88429    139.53674    140.50462    372.76877   0.71166156 
    3540    3055713.9    500.84019   -324.45289    155.95593    139.51488    140.43982    324.45289   0.71244817 
    3560    3056124.3    501.07188   -342.77345    156.02756    139.54702    140.36186    342.77345   0.71323478 
    3580    3057070.3     501.1162   -296.94312     156.0992    139.52435    140.36368    296.94312   0.71402139 
    3600      3057913    501.10143   -418.44913    156.17084    139.50577    140.35666    418.44913     0.714808 
    3620    3057594.3    501.71904   -207.10919    156.24248    139.44892    140.33487    207.10919   0.71559461 
    3640    3059889.9    500.38861   -335.76514    156.31412    139.48861    140.33593    335.76514   0.71638122 
    3660    3060926.1    500.19585   -489.07457    156.38575    139.45997    140.34795    489.07457   0.71716783 
    3680    3060050.6     498.5658   -518.48523    156.45739    139.46646    140.23704    518.48523   0.71795444 
    3700    3061982.9    499.55112   -571.02298    156.52903    139.46953    140.25829    571.02298   0.71874105 
    3720    3062424.5    499.34938   -542.44504    156.60067    139.46803    140.21585    542.44504   0.71952766 
    3740    3063646.6     500.6747   -527.46316    156.67231    139.44591    140.22991    527.46316   0.72031426 
    3760    3062867.1    499.81956    -249.9846    156.74394    139.35184    140.22475     249.9846   0.72110087 
    3780    3064869.6    499.89815   -507.51404    156.81558    139.34623    140.25797    507.51404   0.72188748 
    3800    3068637.1    500.23647   -582.95415    156.88722     139.3964    140.31575    582.95415   0.72267409 
    3820    3067998.8    500.31451   -475.15846    156.95886    139.41225    140.20658    475.15846    0.7234607 
    3840    3068703.9    499.71602   -280.69434     157.0305    139.40546    140.18166    280.69434   0.72424731 
    3860    3070174.9    500.68367   -308.82851    157.10213    139.37088    140.21969    308.82851   0.72503392 
    3880    3071100.2    500.73736   -378.97572    157.17377    139.34006    140.22902    378.97572   0.72582053 
    3900    3072750.2    500.05027   -497.73967    157.24541    139.32672    140.25387    497.73967   0.72660714 
    3920    3072639.1     499.5186   -485.48914    157.31705    139.26244    140.24964    485.48914   0.72739375 
    3940    3074118.6    499.92427   -276.99218    157.38869    139.31777    140.19761    276.99218   0.72818036 
    3960      3075194    500.01142   -376.33872    157.46032    139.24965    140.25142    376.33872   0.72896697 
    3980    3075206.7    499.39537   -337.85596    157.53196    139.21019    140.22795    337.85596   0.72975358 
    4000    3076952.1    498.59452   -360.60807     157.6036    139.21626    140.23766    360.60807   0.73054018 
    4020      3077715     498.1247   -594.19111    157.67524    139.22454    140.20036    594.19111   0.73132679 
    4040    3076338.3    499.77923   -350.64885    157.74688    139.11554    140.18375    350.64885    0.7321134 
    4060    3076282.4    499.63963   -510.26034    157.81851    139.06259    140.17093    510.26034   0.73290001 
    4080    3079938.4    498.83322   -524.39811    157.89015    139.10981    140.22622    524.39811   0.73368662 
    4100      3080438    500.38623   -519.71404    157.96179    139.07853    140.21689    519.71404   0.73447323 
    4120    3080057.3    500.29668   -370.02693    158.03343    139.06041    140.15427    370.02693   0.73525984 
    4140    3081842.5    498.44249   -581.23406    158.10507    139.10085    140.13121    581.23406   0.73604645 
    4160    3083363.1    499.51219   -607.48172     158.1767    139.13708    140.10037    607.48172   0.73683306 
    4180    3082181.3    499.47563   -467.41045    158.24834    139.05515    140.06575    467.41045   0.73761967 
    4200    3081047.4    499.27866    -346.6275    158.31998    139.03702    139.96911     346.6275   0.73840628 
    4220    3082572.2    499.37863   -131.88812    158.39162    139.05683     139.9551    131.88812   0.73919289 
    4240    3084008.9    500.62441   -445.97014    158.46326    139.06436    139.94945    445.97014   0.73997949 
    4260    3085571.9     500.1675   -764.57072    158.53489    139.04637    139.97522    764.57072    0.7407661 
    4280    3085562.5    501.05504   -585.37966    158.60653    139.03591     139.9221    585.37966   0.74155271 
    4300    3086225.2    499.93786    -435.9567    158.67817    139.04739    139.87741     435.9567   0.74233932 
    4320    3086619.1    500.33073   -229.46421    158.74981     139.0242    139.85547    229.46421   0.74312593 
    4340    3086082.4    500.28313   -357.85824    158.82145    138.95517     139.8375    357.85824   0.74391254 
    4360    3088347.2    501.56915   -553.91002    158.89308    138.96685    139.86528    553.91002   0.74469915 
    4380    3090073.4    499.38839   -645.95524    158.96472    138.99599    139.85106    645.95524   0.74548576 
    4400    3090087.8    500.16767   -404.56044    159.03636    138.95714     139.8278    404.56044   0.74627237 
    4420    3089812.3     501.4108   -306.57065      159.108     138.9765    139.73291    306.57065   0.74705898 
    4440      3091203    500.31319   -443.56967    159.17964    138.94657    139.76299    443.56967   0.74784559 
    4460    3091215.1    500.31443   -518.93119    159.25127    138.90929    139.73816    518.93119    0.7486322 
    4480    3092719.8    500.65519   -694.08897    159.32291    138.88788    139.76486    694.08897    0.7494188 
    4500    3092336.6    500.33359   -557.95337    159.39455     138.8616    139.71117    557.95337   0.75020541 
    4520    3092222.7    500.21098   -378.08875    159.46619    138.81096    139.69421    378.08875   0.75099202 
    4540    3092525.1    499.36235   -429.50459    159.53783    138.82757    139.62843    429.50459   0.75177863 
    4560    3091989.5     500.1432   -464.42773    159.60946    138.73597    139.63372    464.42773   0.75256524 
    4580    3091619.5    500.27031   -96.439789     159.6811     138.7378    139.55253    96.439789   0.75335185 
    4600    3092496.4    501.35024   -438.45712    159.75274    138.73684    139.53048    438.45712   0.75413846 
    4620    3092672.1    498.99204   -697.92006    159.82438    138.69534     139.5176    697.92006   0.75492507 
    4640    3092120.5     500.6195   -372.74734    159.89602    138.66005     139.4657    372.74734   0.75571168 
    4660    3093153.1    499.22313   -698.68733    159.96765    138.62179    139.48828    698.68733   0.75649829 
    4680      3092841    499.85452   -474.17184    160.03929    138.58865    139.44511    474.17184    0.7572849 
    4700      3092742    500.16501   -447.81166    160.11093    138.50714    139.46028    447.81166   0.75807151 
    4720    3093021.1    500.26115   -428.46396    160.18257    138.48468     139.4331    428.46396   0.75885811 
    4740    3094466.3    499.87449   -666.84528    160.25421    138.45589    139.46489    666.84528   0.75964472 
    4760    3093049.1    499.62918   -506.25842    160.32584    138.35629    139.43903    506.25842   0.76043133 
    4780    3093132.2    500.27753    -529.7332    160.39748    138.34608    139.39079     529.7332   0.76121794 
    4800      3093455    501.07413    -527.3004    160.46912    138.35875    139.33034     527.3004   0.76200455 
    4820    3093738.4    501.07374   -314.81632    160.54076    138.30851    139.33153    314.81632   0.76279116 
    4840      3095006    499.59827   -566.27535     160.6124    138.34489     139.2898    566.27535   0.76357777 
    4860    3094453.1    499.31148   -503.74856    160.68403    138.26797    139.28027    503.74856   0.76436438 
    4880    3094900.2    499.89849   -476.44788    160.75567    138.23975    139.26673    476.44788   0.76515099 
    4900    3095542.6    499.51481   -475.30424    160.82731    138.21635    139.25717    475.30424    0.7659376 
    4920    3095794.5    499.07869   -444.00806    160.89895    138.13487     139.2886    444.00806   0.76672421 
    4940    3095962.1    499.40542   -384.16182    160.97059    138.16962    139.19914    384.16182   0.76751082 
    4960    3098743.5    500.08096   -510.68606    161.04222    138.15505     139.2769    510.68606   0.76829742 
    4980    3100508.5    499.03763   -524.58841    161.11386    138.16588    139.28335    524.58841   0.76908403 
    5000    3103009.1    499.59936   -711.11722     161.1855    138.19209    139.30731    711.11722   0.76987064 
    5020    3102870.8     499.3269   -671.98071    161.25714    138.14149    139.29021    671.98071   0.77065725 
    5040    3103419.9    499.74002    -616.7264    161.32878    138.10123    139.29359     616.7264   0.77144386 
    5060      3104141    498.74423   -434.61359    161.40041    138.07088    139.29473    434.61359   0.77223047 
    5080    3106121.2    498.13035   -477.61494    161.47205     138.0758    139.31679    477.61494   0.77301708 
    5100    3107904.1    500.04739   -508.54106    161.54369    138.08668    139.32396    508.54106   0.77380369 
    5120      3108112     500.1552   -417.18879    161.61533    138.07097    139.28737    417.18879    0.7745903 
    5140    3109308.8    497.69859   -585.19268    161.68697    138.07504    139.27517    585.19268   0.77537691 
    5160    3108437.3    500.50498   -350.92137     161.7586    137.99121    139.25901    350.92137   0.77616352 
    5180    3109011.9    499.45625   -278.72559    161.83024    137.99028    139.22404    278.72559   0.77695013 
    5200    3109862.9    501.11431   -565.77773    161.90188    137.96097    139.23009    565.77773   0.77773673 
    5220    3110186.5    500.00534   -584.59665    161.97352    137.96169    139.18227    584.59665   0.77852334 
    5240    3110708.8    500.86357   -593.36692    162.04516    137.95195    139.15392    593.36692   0.77930995 
    5260      3112099    501.04148   -609.32886    162.11679    137.95955    139.14693    609.32886   0.78009656 
    5280      3111149    500.98684   -283.73226    162.18843    137.91013    139.09284    283.73226   0.78088317 
    5300    3111215.1     501.6981   -102.78425    162.26007    137.91495    139.02953    102.78425   0.78166978 
    5320    3113217.2     501.3848   -423.66748    162.33171    137.95826    139.01393    423.66748   0.78245639 
    5340    3114915.3    501.21225    -487.2538    162.40335    137.92091    139.06606     487.2538     0.783243 
    5360    3115675.3    502.48017   -468.46431    162.47498    137.87623    139.08372    468.46431   0.78402961 
    5380    3114708.6    501.57389   -320.96217    162.54662    137.84288    139.01291    320.96217   0.78481622 
    5400    3116389.5    501.43697   -405.37019    162.61826    137.85319    139.01626    405.37019   0.78560283 
    5420    3118282.9    500.94137   -599.33854     162.6899    137.86588    139.02667    599.33854   0.78638944 
    5440    3119320.4    501.25818   -892.95411    162.76154    137.88776    138.98966    892.95411   0.78717604 
    5460    3120486.7    500.65341   -685.45379    162.83317    137.88946    138.97874    685.45379   0.78796265 
    5480    3121026.6    500.34999   -393.11846    162.90481    137.86297    138.96836    393.11846   0.78874926 
    5500    3120877.9    500.05831   -248.33133    162.97645    137.82386    138.94007    248.33133   0.78953587 
    5520    3123591.2    500.55867   -571.07783    163.04809    137.86355    138.95975    571.07783   0.79032248 
    5540    3123799.3    500.43684   -621.04354    163.11973     137.8111    138.96084    621.04354   0.79110909 
    5560    3123884.6    501.18423   -340.97487    163.19136    137.78369    138.93127    340.97487    0.7918957 
    5580    3124529.4    499.24306   -311.12715      163.263    137.80102     138.8815    311.12715   0.79268231 
    5600    3125391.1    500.63145   -432.33706    163.33464    137.76984     138.8903    432.33706   0.79346892 
    5620    3126937.3    499.47581   -464.06781    163.40628    137.71354    138.95488    464.06781   0.79425553 
    5640    3127432.1    499.73654   -500.75314    163.47792    137.71328    138.91623    500.75314   0.79504214 
    5660    3128594.2    500.63593   -252.45961    163.54955    137.70998     138.9103    252.45961   0.79582875 
    5680    3129234.9    501.05945    -382.0714    163.62119    137.67753    138.91065     382.0714   0.79661535 
    5700    3130999.6    500.43946   -547.05311    163.69283    137.69238    138.91318    547.05311   0.79740196 
    5720    3131473.9    499.64988   -649.19433    163.76447     137.6882    138.87766    649.19433   0.79818857 
    5740    3131513.1    499.81716   -474.73186    163.83611    137.64406     138.8632    474.73186   0.79897518 
    5760    3132468.1    500.34402   -372.59752    163.90774      137.578    138.91149    372.59752   0.79976179 
    5780    3133324.3    500.01274   -483.28229    163.97938     137.6023    138.86424    483.28229    0.8005484 
    5800    3134594.3    498.81985   -483.82581    164.05102    137.56668    138.89581    483.82581   0.80133501 
    5820    3136089.6    499.82711   -513.22467    164.12266     137.5497    138.91856    513.22467   0.80212162 
    5840      3137299    500.68005    -578.1224     164.1943    137.55626    138.90487     578.1224   0.80290823 
    5860    3138111.6     499.9862    -281.7112    164.26593    137.52412    138.91271     281.7112   0.80369484 
    5880    3138238.9    499.26026   -253.89016    164.33757    137.51341    138.86861    253.89016   0.80448145 
    5900    3139207.9    499.41448   -336.93788    164.40921    137.49044    138.87415    336.93788   0.80526806 
    5920    3141571.1    501.08287   -404.11899    164.48085    137.50901    138.89941    404.11899   0.80605467 
    5940    3141457.6    499.57399   -395.78002    164.55249    137.47388     138.8694    395.78002   0.80684127 
    5960    3140867.9    498.97505    -576.4349    164.62412    137.39286    138.86475     576.4349   0.80762788 
    5980    3141008.7    499.22723   -759.67455    164.69576    137.36058    138.84319    759.67455   0.80841449 
    6000    3141229.3    498.70514   -535.92202     164.7674    137.30318     138.8506    535.92202    0.8092011 
    6020    3141451.8    498.76112   -533.96091    164.83904     137.3152    138.78794    533.96091   0.80998771 
    6040    3140375.8    498.94176     -308.766    164.91068    137.26135    138.73454      308.766   0.81077432 
    6060    3139590.8     498.0526   -168.04564    164.98231    137.13313    138.76926    168.04564   0.81156093 
    6080    3142323.5    498.21067   -373.67293    165.05395    137.16708     138.7954    373.67293   0.81234754 
    6100      3143421    498.87971   -473.46716    165.12559    137.14825    138.80269    473.46716   0.81313415 
    6120    3140949.3    498.98749   -456.20299    165.19723    137.08043    138.70199    456.20299   0.81392076 
    6140    3141752.4     499.7445   -558.69731    165.26887    137.01672     138.7418    558.69731   0.81470737 
    6160    3144216.4    499.76217   -794.14467     165.3405     137.0154     138.7918    794.14467   0.81549398 
    6180    3144050.8    500.60244   -614.98881    165.41214      136.949    138.79164    614.98881   0.81628058 
    6200    3143695.9    499.07827   -549.72841    165.48378    136.93606      138.729    549.72841   0.81706719 
    6220    3145100.9    499.45207   -349.19013    165.55542    136.92554    138.74161    349.19013    0.8178538 
    6240    3146234.8    499.97695   -238.12024    165.62706    136.88696     138.7707    238.12024   0.81864041 
    6260    3147043.6    500.76106   -423.43463    165.69869     136.8452     138.7887    423.43463   0.81942702 
    6280    3147181.8    500.87425   -212.69868    165.77033    136.84152    138.73855    212.69868   0.82021363 
    6300    3147996.5    499.79227   -182.29931    165.84197    136.85209     138.7038    182.29931   0.82100024 
    6320    3149127.3    499.09856   -249.38149    165.91361    136.82792    138.71821    249.38149   0.82178685 
    6340    3149707.5    499.91074   -484.88751    165.98525    136.82248    138.68941    484.88751   0.82257346 
    6360    3150963.4    501.17633    -594.4747    166.05688    136.81437    138.69307     594.4747   0.82336007 
    6380    3152144.2    499.56807   -677.40511    166.12852    136.82227    138.67721    677.40511   0.82414668 
    6400    3153377.9    501.09219   -820.60367    166.20016    136.79197     138.7024    820.60367   0.82493329 
    6420    3153390.6    501.71169   -619.16704     166.2718     136.7084    138.72796    619.16704   0.82571989 
    6440    3154905.5    500.23654   -514.13676    166.34344    136.67779     138.7659    514.13676    0.8265065 
    6460      3154401    501.41374   -352.00525    166.41507    136.66757    138.69435    352.00525   0.82729311 
    6480    3153844.1     499.7234   -112.27734    166.48671    136.64215    138.63599    112.27734   0.82807972 
    6500    3155412.8    500.56361   -350.14535    166.55835    136.66417    138.62294    350.14535   0.82886633 
    6520    3156490.7    502.10949   -602.77731    166.62999    136.66206    138.61282    602.77731   0.82965294 
    6540    3155393.9    500.12601   -595.80159    166.70163    136.66913    138.49794    595.80159   0.83043955 
    6560    3156908.6    500.86725   -512.15564    166.77326    136.65264    138.52162    512.15564   0.83122616 
    6580      3158218    501.26942   -428.41262     166.8449    136.63747    138.53494    428.41262   0.83201277 
    6600    3159388.7    499.78351     -636.352    166.91654    136.66737    138.49651      636.352   0.83279938 
    6620    3160545.4     499.6021   -655.70473    166.98818    136.67763    138.47739    655.70473   0.83358599 
    6640    3160140.2    500.88678   -407.72273    167.05982    136.70041     138.3772    407.72273    0.8343726 
    6660    3161982.4    499.26766   -372.89096    167.13145    136.71307    138.38571    372.89096    0.8351592 
    6680    3162949.1    498.98402   -373.43021    167.20309    136.73474    138.34677    373.43021   0.83594581 
    6700    3163650.8    499.05953    -570.2066    167.27473    136.72387    138.32921     570.2066   0.83673242 
    6720    3165483.2    499.42107   -625.72621    167.34637    136.76344    138.31003    625.72621   0.83751903 
    6740      3165131    500.30387   -486.91343    167.41801    136.71096    138.28854    486.91343   0.83830564 
    6760    3164873.8    500.03969   -325.48562    167.48964    136.67246     138.2571    325.48562   0.83909225 
    6780    3166925.8    499.19467   -515.43068    167.56128    136.68722    138.27266    515.43068   0.83987886 
    6800    3166840.8    499.79314   -459.73887    167.63292    136.70926    138.18757    459.73887   0.84066547 
    6820    3167274.7    500.26027   -329.66936    167.70456    136.76141    138.09479    329.66936   0.84145208 
    6840    3168703.1    500.30974   -437.71687     167.7762    136.77514    138.08422    437.71687   0.84223869 
    6860    3170129.6    499.73793   -310.29425    167.84783    136.77558    138.08697    310.29425    0.8430253 
    6880    3170238.2    499.67015   -270.93893    167.91947    136.77221    138.03619    270.93893   0.84381191 
    6900    3169711.3     500.3465   -452.15867    167.99111    136.71491    138.01221    452.15867   0.84459851 
    6920    3171639.2    499.16027   -606.66153    168.06275    136.73676    138.01524    606.66153   0.84538512 
    6940    3173091.6    500.35501   -533.52338    168.13439     136.7206    138.03592    533.52338   0.84617173 
    6960    3173067.5    499.37202   -512.83732    168.20602    136.68827    138.00872    512.83732   0.84695834 
    6980    3172822.7    499.14821   -461.32137    168.27766    136.68363    137.94401    461.32137   0.84774495 
    7000    3175083.8    499.60358   -617.39355     168.3493    136.69325    137.97385    617.39355   0.84853156 
    7020    3175186.7    499.51577   -581.14392    168.42094    136.66062    137.95257    581.14392   0.84931817 
    7040    3174108.3    498.88509   -321.03058    168.49258    136.61315    137.89498    321.03058   0.85010478 
    7060    3174144.7    499.43302   -531.09793    168.56421    136.57804    137.87339    531.09793   0.85089139 
    7080    3175826.9    499.24939   -454.63536    168.63585    136.58545    137.88038    454.63536     0.851678 
    7100    3175984.4    499.83954   -405.26129    168.70749    136.56052    137.85383    405.26129   0.85246461 
    7120    3176100.8    498.80527   -620.19967    168.77913    136.53691     137.8242    620.19967   0.85325122 
    7140    3176972.2    498.73476   -521.95192    168.85077    136.54723     137.7931    521.95192   0.85403782 
    7160      3176927    498.07918   -609.46086     168.9224    136.49221    137.78823    609.46086   0.85482443 
    7180    3178454.1    499.70602   -539.68143    168.99404    136.47077    137.81767    539.68143   0.85561104 
    7200    3178294.7    500.10882   -431.49296    169.06568     136.4238     137.7998    431.49296   0.85639765 
    7220    3179085.7    499.07233   -189.61859    169.13732    136.40599     137.7937    189.61859   0.85718426 
    7240    3179201.9    500.08867   -323.06237    169.20896    136.41776    137.72851    323.06237   0.85797087 
    7260    3180665.9    500.17132   -615.46752    169.28059    136.44066    137.71051    615.46752   0.85875748 
    7280    3182365.8    501.60399   -627.79721    169.35223     136.3894    137.77758    627.79721   0.85954409 
    7300    3182411.2     500.9137   -503.40429    169.42387    136.33914    137.77206    503.40429    0.8603307 
    7320    3183454.7    500.45453   -337.90819    169.49551    136.33151     137.7667    337.90819   0.86111731 
    7340    3184657.9    502.08384   -336.34027    169.56715    136.30498    137.78735    336.34027   0.86190392 
    7360    3186331.1    500.61177   -399.73668    169.63878    136.31027    137.79618    399.73668   0.86269053 
    7380    3186097.9    501.41126   -475.13613    169.71042    136.27526    137.76331    475.13613   0.86347713 
    7400    3185970.1      501.179   -450.36668    169.78206    136.23515     137.7402    450.36668   0.86426374 
    7420    3188972.3    502.83656    -524.8919     169.8537    136.27692    137.76961     524.8919   0.86505035 
    7440    3189513.6    502.20081   -561.42159    169.92534     136.2757    137.73614    561.42159   0.86583696 
    7460    3188050.6    500.75513   -547.18971    169.99697    136.16033    137.73155    547.18971   0.86662357 
    7480    3189866.9    500.06014   -564.38429    170.06861    136.13809    137.77447    564.38429   0.86741018 
    7500    3191888.8    500.65619   -512.20654    170.14025    136.17295    137.76847    512.20654   0.86819679 
    7520    3192380.8    500.04612   -419.52737    170.21189    136.15935    137.74547    419.52737    0.8689834 
    7540    3193024.8     500.8263   -531.36615    170.28353    136.09776    137.77762    531.36615   0.86977001 
    7560    3194939.8    501.16876   -447.72235    170.35516    136.06955    137.83084    447.72235   0.87055662 
    7580    3195383.8    501.48032    -372.6353     170.4268    136.05266    137.80916     372.6353   0.87134323 
    7600    3194324.7    499.74091   -422.78557    170.49844    136.02557    137.73303    422.78557   0.87212984 
    7620    3195815.4    498.99468   -440.11412    170.57008    136.03334    137.73156    440.11412   0.87291644 
    7640    3197810.4    500.50258   -560.17278    170.64172    136.07586    137.71664    560.17278   0.87370305 
    7660    3198022.1    501.46623   -523.84461    170.71335     136.0394    137.70486    523.84461   0.87448966 
    7680      3197800    500.06112   -413.11307    170.78499    135.96418    137.71368    413.11307   0.87527627 
    7700    3199923.6    499.23751   -417.42399    170.85663    135.99493    137.71621    417.42399   0.87606288 
    7720    3201737.4    499.23874   -602.88405    170.92827    136.00835    137.72293    602.88405   0.87684949 
    7740    3201448.5    500.13351   -650.60941    170.99991    135.97791    137.68362    650.60941    0.8776361 
    7760    3201011.7    500.04253   -336.58588    171.07154    135.92251    137.66327    336.58588   0.87842271 
    7780    3201684.8    499.30989    -228.4855    171.14318    135.96303    137.59357     228.4855   0.87920932 
    7800    3201475.2    500.46765   -543.44094    171.21482    135.91602    137.57457    543.44094   0.87999593 
    7820    3201687.4    500.30652   -695.62668    171.28646    135.92468    137.51737    695.62668   0.88078254 
    7840    3201314.1    499.48653   -550.97474     171.3581    135.88344    137.48557    550.97474   0.88156915 
    7860      3201242    499.04509   -494.71637    171.42973    135.84726    137.46162    494.71637   0.88235575 
    7880    3201193.6    499.53436   -394.77846    171.50137    135.82168      137.428    394.77846   0.88314236 
    7900    3202472.9    501.50544   -447.16151    171.57301    135.86039    137.38637    447.16151   0.88392897 
    7920    3202593.8    498.50002   -452.68442    171.64465    135.85681    137.33783    452.68442   0.88471558 
    7940      3201525    499.73303   -508.67418    171.71629    135.80507      137.287    508.67418   0.88550219 
    7960    3201796.4     499.8248   -486.75732    171.78792    135.78712    137.25953    486.75732    0.8862888 
    7980    3202121.4    500.09757   -411.14139    171.85956    135.77024     137.2333    411.14139   0.88707541 
    8000    3203739.9    501.31875    -509.9494     171.9312    135.79035    137.22513     509.9494   0.88786202 
    8020    3203857.3    501.35559   -567.85387    172.00284    135.79813    137.16514    567.85387   0.88864863 
    8040    3204616.3    499.50252   -346.98646    172.07448    135.78494    137.15384    346.98646   0.88943524 
    8060    3204953.5    498.85794   -197.53194    172.14611     135.7543    137.14214    197.53194   0.89022185 
    8080    3204930.3    498.92179   -420.27657    172.21775    135.76036    137.07798    420.27657   0.89100846 
    8100    3205222.7    498.86799   -540.01914    172.28939    135.76702    137.02676    540.01914   0.89179507 
    8120    3205865.3    499.84432   -610.92115    172.36103    135.71303    137.05177    610.92115   0.89258167 
    8140    3206668.7    498.87569   -564.10477    172.43267    135.70114    137.04116    564.10477   0.89336828 
    8160    3206215.6    499.91705   -377.93036     172.5043    135.67264    136.99367    377.93036   0.89415489 
    8180    3208081.5    499.19767   -363.09378    172.57594     135.6351    137.05442    363.09378    0.8949415 
    8200    3209548.5     498.0488   -302.07153    172.64758    135.65752    137.03755    302.07153   0.89572811 
    8220    3210123.2    498.35972   -462.94485    172.71922    135.65204    137.01077    462.94485   0.89651472 
    8240      3212045    499.88246   -611.38968    172.79086    135.66865    137.01917    611.38968   0.89730133 
    8260    3213234.4     499.5634   -443.74841    172.86249    135.66638     137.0154    443.74841   0.89808794 
    8280    3213943.5    497.53511   -352.17525    172.93413    135.68325    136.97184    352.17525   0.89887455 
    8300    3214018.7    499.96546   -207.92257    173.00577    135.66805    136.93366    207.92257   0.89966116 
    8320    3214896.5    499.97165   -263.80616    173.07741    135.62739    136.95541    263.80616   0.90044777 
    8340    3217646.1    499.44265    -256.2119    173.14905    135.66558    136.97726     256.2119   0.90123438 
    8360    3217584.1    500.02421   -448.56022    173.22068    135.66757    136.91597    448.56022   0.90202098 
    8380    3217362.7    500.94159   -709.77539    173.29232    135.61171    136.90633    709.77539   0.90280759 
    8400    3219380.6    501.15683   -651.29299    173.36396    135.57177    136.97592    651.29299    0.9035942 
    8420    3218370.6    501.12968    -388.5182     173.4356    135.51231    136.93645     388.5182   0.90438081 
    8440    3218585.8    499.89581   -316.48323    173.50724     135.4864    136.91524    316.48323   0.90516742 
    8460    3219419.2    500.64777   -475.09588    173.57887    135.49191    136.88861    475.09588   0.90595403 
    8480    3219821.3    500.37214   -323.15484    173.65051    135.44034    136.90133    323.15484   0.90674064 
    8500      3219955     501.2771   -303.16973    173.72215    135.45757    136.83315    303.16973   0.90752725 
    8520    3220958.7     500.4607   -545.01824    173.79379     135.4701    136.80673    545.01824   0.90831386 
    8540    3223166.3    500.32177   -676.53362    173.86543    135.49577    136.81816    676.53362   0.90910047 
    8560    3222403.2    500.45307   -452.62837    173.93706    135.41785     136.8081    452.62837   0.90988708 
    8580    3222772.1    500.60193   -282.64258     174.0087    135.36924    136.81656    282.64258   0.91067369 
    8600    3223694.6    500.66892    -224.8416    174.08034    135.32539    136.84372     224.8416   0.91146029 
    8620    3225261.4    500.94125   -380.20223    174.15198    135.29596    136.88368    380.20223    0.9122469 
    8640    3227752.5    499.82704   -600.65197    174.22362    135.31824    136.91053    600.65197   0.91303351 
    8660      3228443    499.73542   -619.11892    174.29525    135.29998    136.90201    619.11892   0.91382012 
    8680    3231140.6    500.45071   -467.78897    174.36689    135.31526    136.94464    467.78897   0.91460673 
    8700    3231657.5    500.44152   -449.49684    174.43853    135.28976    136.93611    449.49684   0.91539334 
    8720    3230803.5    500.13562   -344.49689    174.51017    135.23161    136.90257    344.49689   0.91617995 
    8740    3233204.4    500.89921   -300.32859    174.58181    135.22668    136.95308    300.32859   0.91696656 
    8760    3234782.1    500.63491   -530.92119    174.65344    135.25103    136.93905    530.92119   0.91775317 
    8780    3233740.9    500.08606   -435.71632    174.72508     135.2042    136.88623    435.71632   0.91853978 
    8800    3233477.1    499.75693   -356.88494    174.79672    135.18636    136.83703    356.88494   0.91932639 
    8820    3236083.8    500.30516   -641.88793    174.86836    135.22238    136.85477    641.88793     0.920113 
    8840    3235867.2    499.17837   -517.19762       174.94    135.18591    136.82647    517.19762    0.9208996 
    8860      3236637    500.84466   -438.33356    175.01163    135.10656    136.88335    438.33356   0.92168621 
    8880    3237272.1    499.13754   -334.93008    175.08327    135.09243    136.86851    334.93008   0.92247282 
    8900    3239106.3    500.05333   -384.80765    175.15491    135.13618    136.84573    384.80765   0.92325943 
    8920    3240569.1    499.17727   -615.59657    175.22655    135.13456     136.8532    615.59657   0.92404604 
    8940    3240484.3    500.01593   -367.43816    175.29819    135.14406    136.78408    367.43816   0.92483265 
    8960    3242221.1    501.31189   -333.76461    175.36982     135.1394     136.8062    333.76461   0.92561926 
    8980    3242260.5    500.68659   -236.25085    175.44146     135.1236    136.76799    236.25085   0.92640587 
    9000    3241947.7    499.74216   -271.14002     175.5131    135.05879    136.76457    271.14002   0.92719248 
    9020    3244076.4     499.4869   -356.10231    175.58474    135.11342    136.74322    356.10231   0.92797909 
    9040      3245757    499.51492   -614.24988    175.65638    135.13088     136.7406    614.24988    0.9287657 
    9060    3245810.9    500.29202   -396.00925    175.72801    135.09964    136.71873    396.00925   0.92955231 
    9080      3246086    500.19918   -421.23984    175.79965     135.0474    136.72747    421.23984   0.93033891 
    9100    3247001.2    498.51609    -684.0947    175.87129    135.03944    136.71837     684.0947   0.93112552 
    9120    3247065.3    499.70438   -489.93666    175.94293     134.9697    136.73602    489.93666   0.93191213 
    9140      3245768     500.1728   -507.98344    176.01457    134.97302     136.6224    507.98344   0.93269874 
    9160    3246063.5     499.9453   -274.63061     176.0862    134.99552    136.55648    274.63061   0.93348535 
    9180    3247511.4    499.38375   -236.11918    176.15784     135.0254    136.53161    236.11918   0.93427196 
    9200    3247789.3    497.74026   -376.22437    176.22948    135.01997    136.49328    376.22437   0.93505857 
    9220    3248110.6    500.23537   -484.66982    176.30112    134.96215    136.50977    484.66982   0.93584518 
    9240    3248660.9    498.85456   -477.80857    176.37276    134.92387    136.51617    477.80857   0.93663179 
    9260    3249421.4    498.70123   -595.71403    176.44439    134.89531    136.52158    595.71403    0.9374184 
    9280    3250148.9    498.68374    -425.0933    176.51603    134.88576     136.5064     425.0933   0.93820501 
    9300    3249776.9    500.50472   -410.19364    176.58767    134.89163    136.42946    410.19364   0.93899162 
    9320    3252436.7    498.53234   -713.70288    176.65931    134.87762    136.49993    713.70288   0.93977822 
    9340    3253388.1    498.82181   -669.37683    176.73095    134.85351    136.50891    669.37683   0.94056483 
    9360    3252997.8    499.84912   -421.10151    176.80258    134.84539    136.44545    421.10151   0.94135144 
    9380    3252328.5    499.89309   -131.35319    176.87422    134.80937    136.39856    131.35319   0.94213805 
    9400    3253331.7    501.18552   -162.63941    176.94586    134.80772    136.38707    162.63941   0.94292466 
    9420    3254408.9     500.3967    -369.4998     177.0175    134.81653     136.3681     369.4998   0.94371127 
    9440    3252431.6    500.34688   -355.65078    177.08914    134.80066    136.24615    355.65078   0.94449788 
    9460    3253466.8    500.39643   -268.29524    177.16077    134.76754    136.26789    268.29524   0.94528449 
    9480    3255541.8    501.00007    -376.5462    177.23241    134.80749    136.25929     376.5462    0.9460711 
    9500    3258521.7    499.88795   -611.44961    177.30405    134.85337    136.28253    611.44961   0.94685771 
    9520    3258479.5    501.01013   -454.43779    177.37569    134.79181    136.28793    454.43779   0.94764432 
    9540    3259335.7    501.45149   -477.15018    177.44733    134.76981    136.29095    477.15018   0.94843093 
    9560    3261374.9    500.82304   -378.17053    177.51896     134.8386    136.25164    378.17053   0.94921753 
    9580    3260558.1    500.30262   -531.23819     177.5906    134.78282    136.21891    531.23819   0.95000414 
    9600    3260838.1    501.37142   -431.48975    177.66224    134.71092    136.24836    431.48975   0.95079075 
    9620    3262102.9    500.36486   -441.35501    177.73388    134.72127    136.23581    441.35501   0.95157736 
    9640    3261395.3    499.64857   -243.03425    177.80552    134.65875     136.2146    243.03425   0.95236397 
    9660    3263336.2    499.28251   -264.61973    177.87715    134.68572    136.21348    264.61973   0.95315058 
    9680    3264740.8    500.14661   -424.27746    177.94879    134.65989    136.24338    424.27746   0.95393719 
    9700    3263683.8    500.10781   -391.66512    178.02043     134.6345    136.17014    391.66512    0.9547238 
    9720    3263760.7    499.99629   -465.37513    178.09207    134.57615    136.17759    465.37513   0.95551041 
    9740    3264890.7     500.5508    -482.2855    178.16371    134.56791    136.17829     482.2855   0.95629702 
    9760      3266717    500.11671    -313.1199    178.23534    134.58878    136.17859     313.1199   0.95708363 
    9780    3267236.2    500.18033    -603.7604    178.30698    134.55547    136.17921     603.7604   0.95787024 
    9800    3267676.8    500.85349   -688.14822    178.37862    134.49844    136.20061    688.14822   0.95865684 
    9820    3268509.8    500.35514   -570.05842    178.45026     134.5062    136.17278    570.05842   0.95944345 
    9840    3269746.6    499.81758   -525.83651     178.5219    134.46745    136.20889    525.83651   0.96023006 
    9860    3269323.3    500.08762    -494.5107    178.59353     134.3668     136.2386     494.5107   0.96101667 
    9880    3270144.3     499.5065   -363.08048    178.66517    134.34224    136.24307    363.08048   0.96180328 
    9900    3272088.5    498.55378   -595.25702    178.73681    134.35291    136.25861    595.25702   0.96258989 
    9920    3270827.9    499.64415   -175.26614    178.80845    134.35194    136.15252    175.26614    0.9633765 
    9940    3270687.4    500.90003   -56.803885    178.88009    134.31998    136.12454    56.803885   0.96416311 
    9960    3270659.9    500.81163   -13.637922    178.95172     134.3143    136.07466    13.637922   0.96494972 
    9980    3271786.7    500.08797   -419.54969    179.02336    134.27823    136.10362    419.54969   0.96573633 
   10000    3272501.8    499.07142    -797.7345      179.095    134.24721    136.11035     797.7345   0.96652294 
   10020      3273677    499.66707   -858.61538    179.16664    134.23546    136.11671    858.61538   0.96730955 
   10040    3273562.1    499.72703   -387.39247    179.23828    134.22364    136.06951    387.39247   0.96809616 
   10060    3275365.8    499.79889   -313.91148    179.30991    134.24145    136.07204    313.91148   0.96888276 
   10080    3275992.6    499.33816   -290.38285    179.38155    134.27493     136.0098    290.38285   0.96966937 
   10100    3276786.3    499.33509   -345.62812    179.45319    134.24963    136.01407    345.62812   0.97045598 
   10120    3279637.5    500.16741   -445.27486    179.52483    134.26966     136.0578    445.27486   0.97124259 
   10140      3280102    499.50941   -366.10218    179.59647    134.24027    136.05257    366.10218    0.9720292 
   10160    3281051.6     499.1859   -356.99507     179.6681    134.20342    136.07504    356.99507   0.97281581 
   10180    3283365.1    500.50551   -376.33392    179.73974    134.21577     136.1042    376.33392   0.97360242 
   10200    3286019.8    499.52366   -413.10904    179.81138    134.20462    136.17129    413.10904   0.97438903 
   10220    3285462.5    498.75156   -326.98209    179.88302    134.21008    136.08843    326.98209   0.97517564 
   10240    3286670.9    498.39224   -484.86081    179.95466    134.21585    136.07844    484.86081   0.97596225 
   10260    3289010.5    500.33986   -559.03241    180.02629    134.23411     136.1026    559.03241   0.97674886 
   10280    3291387.8    499.02116   -552.39037    180.09793    134.28568    136.09452    552.39037   0.97753547 
   10300    3289756.3    500.37225   -383.99509    180.16957    134.22471    136.03474    383.99509   0.97832207 
   10320    3290319.8    499.50366   -283.09014    180.24121    134.19724    136.03179    283.09014   0.97910868 
   10340    3293565.8    499.08679   -231.80949    180.31285    134.27155    136.03657    231.80949   0.97989529 
   10360    3295280.2    499.42927   -355.22565    180.38448    134.31048    136.01389    355.22565    0.9806819 
   10380      3297239     499.4957    -515.5065    180.45612    134.39303    135.95715     515.5065   0.98146851 
   10400    3298165.3    498.78837   -378.06568    180.52776    134.37696    135.95764    378.06568   0.98225512 
   10420    3301573.5    499.81925   -606.30952     180.5994    134.40148    136.01933    606.30952   0.98304173 
   10440    3301642.7    500.40954   -262.10282    180.67104    134.41735    135.95219    262.10282   0.98382834 
   10460    3301328.1    499.41014   -240.59925    180.74267    134.36896    135.93429    240.59925   0.98461495 
   10480    3302843.4    500.05309   -203.43621    180.81431    134.35156    135.96041    203.43621   0.98540156 
   10500    3304636.6    501.04519   -538.32016    180.88595    134.34995    135.98198    538.32016   0.98618817 
   10520    3304750.1    500.30183   -526.01792    180.95759    134.35682    135.92587    526.01792   0.98697478 
   10540    3305696.8    500.80224   -508.58033    181.02923    134.35134    135.91655    508.58033   0.98776138 
   10560    3305479.5    501.52671   -404.09094    181.10086    134.30182    135.90394    404.09094   0.98854799 
   10580    3305405.6    501.95654   -311.33003     181.1725    134.25106    135.89852    311.33003    0.9893346 
   10600    3306113.6    500.43016   -504.84662    181.24414    134.25194    135.87302    504.84662   0.99012121 
   10620    3306647.3     501.1347   -434.42481    181.31578    134.24471    135.84858    434.42481   0.99090782 
   10640    3306752.4    500.78824   -339.97891    181.38742    134.20909    135.83528    339.97891   0.99169443 
   10660    3305375.7    501.52694   -188.31396    181.45905    134.13836     135.7967    188.31396   0.99248104 
   10680    3307061.1    501.35146   -373.91432    181.53069    134.13983    135.81083    373.91432   0.99326765 
   10700    3307924.7     501.2087   -423.64573    181.60233    134.16986    135.76232    423.64573   0.99405426 
   10720    3309318.3    501.76185    -440.5075    181.67397    134.18439    135.75125     440.5075   0.99484087 
   10740    3310062.4    500.29523    -455.7949    181.74561    134.14133    135.77182     455.7949   0.99562748 
   10760    3309805.5    499.98636   -185.99667    181.81724    134.13902    135.71013    185.99667   0.99641409 
   10780    3310473.6    500.63622   -348.82256    181.88888    134.14584    135.67717    348.82256   0.99720069 
   10800    3311020.9    499.76776   -448.48164    181.96052    134.10952    135.68291    448.48164    0.9979873 
   10820    3312832.5    500.27445   -375.56117    182.03216    134.17015     135.6424    375.56117   0.99877391 
   10840    3312356.5     500.4482   -217.62289     182.1038    134.14214    135.59786    217.62289   0.99956052 
   10860    3312058.5    501.33655   -185.85583    182.17543    134.13323    135.54134    185.85583    1.0003471 
   10880    3313511.7    500.33872   -246.28435    182.24707    134.11387    135.56709    246.28435    1.0011337 
   10900    3314400.4    500.09173    -579.7072    182.31871    134.12083    135.54313     579.7072    1.0019203 
   10920    3314087.5     500.8715   -591.80053    182.39035     134.1216    135.47632    591.80053     1.002707 
   10940    3313607.2    501.43347   -331.70448    182.46199    134.05805    135.46769    331.70448    1.0034936 
   10960    3313629.6    500.22679   -164.48108    182.53362    134.00654     135.4675    164.48108    1.0042802 
   10980    3316182.7    499.66464   -543.58885    182.60526    134.01476    135.51037    543.58885    1.0050668 
   11000    3316666.2    500.14199   -521.20806     182.6769    133.98797    135.50406    521.20806    1.0058534 
   11020    3317650.3    500.67369   -342.88586    182.74854    133.99056    135.48852    342.88586      1.00664 
   11040    3318997.6    500.02186   -305.93412    182.82018    133.97736    135.50378    305.93412    1.0074266 
   11060    3317556.7    501.14121   -302.32145    182.89181    133.92104    135.44883    302.32145    1.0082132 
   11080    3317887.2     499.5701   -340.71772    182.96345    133.87774    135.45308    340.71772    1.0089998 
   11100      3319901    499.91015   -421.25791    183.03509    133.87289    135.48716    421.25791    1.0097864 
   11120    3319343.7    500.30696   -218.78455    183.10673    133.82807    135.45677    218.78455    1.0105731 
   11140    3318659.7    500.22881   -36.380673    183.17837    133.78943    135.41499    36.380673    1.0113597 
   11160    3320335.6    499.88222   -295.33317       183.25    133.82161    135.39784    295.33317    1.0121463 
   11180    3321578.4    499.63197   -509.54536    183.32164    133.84931    135.36756    509.54536    1.0129329 
   11200    3323209.2    499.49133   -628.32229    183.39328    133.88802    135.34199    628.32229    1.0137195 
   11220    3322876.9    499.98226   -340.57812    183.46492     133.8294    135.33487    340.57812    1.0145061 
   11240    3324509.8    500.39757   -298.94714    183.53656     133.7868    135.39161    298.94714    1.0152927 
   11260    3326732.8     498.7829   -377.71498    183.60819    133.75225    135.46427    377.71498    1.0160793 
   11280    3327308.2    499.13824   -512.76875    183.67983    133.75214    135.43497    512.76875    1.0168659 
   11300    3327195.4    501.06997   -305.12457    183.75147    133.71404    135.41615    305.12457    1.0176525 
   11320    3328311.6    500.98691   -281.55151    183.82311    133.74509    135.37735    281.55151    1.0184391 
   11340    3328578.2    500.04223   -241.62457    183.89475    133.73292    135.34778    241.62457    1.0192258 
   11360    3329565.8    499.41888    -352.6693    183.96638    133.69516    135.37343     352.6693    1.0200124 
   11380    3330757.7    499.56626   -76.842916    184.03802    133.68852     135.3759    76.842916     1.020799 
   11400    3331126.9    500.54416   -54.997119    184.10966    133.62189    135.40572    54.997119    1.0215856 
   11420    3333282.8    499.80091   -314.67393     184.1813    133.65858    135.40347    314.67393    1.0223722 
   11440    3333470.3    498.36904   -495.95206    184.25294    133.64128    135.37596    495.95206    1.0231588 
   11460    3333575.5    499.38925   -430.55221    184.32457    133.64081    135.32809    430.55221    1.0239454 
   11480    3334278.9    499.15429   -359.10117    184.39621    133.64308    135.30176    359.10117     1.024732 
   11500    3335337.7    499.05694   -362.51906    184.46785    133.64379    135.29145    362.51906    1.0255186 
   11520    3337993.9    498.39261   -624.55346    184.53949    133.62065    135.37006    624.55346    1.0263052 
   11540    3337103.3     498.6906   -433.80355    184.61113    133.60198    135.30034    433.80355    1.0270918 
   11560    3336803.3    499.58617   -281.44672    184.68276    133.55704     135.2812    281.44672    1.0278785 
   11580    3337652.2    499.25276   -293.79813     184.7544    133.57297    135.24701    293.79813    1.0286651 
   11600      3337226    499.39946   -333.50661    184.82604     133.5551    135.19542    333.50661    1.0294517 
   11620    3336198.7    498.32179   -317.53318    184.89768    133.49152    135.16578    317.53318    1.0302383 
   11640    3337658.3    500.95799   -321.07046    184.96932    133.50756     135.1563    321.07046    1.0310249 
   11660    3338691.3    498.96439   -193.65203    185.04095    133.50569    135.14769    193.65203    1.0318115 
   11680    3340356.1    499.77461   -661.04478    185.11259    133.51858    135.14971    661.04478    1.0325981 
   11700    3340130.5    500.04178    -668.8044    185.18423    133.47107    135.13638     668.8044    1.0333847 
   11720    3339641.7    500.99711   -412.87461    185.25587    133.44903    135.08667    412.87461    1.0341713 
   11740    3338370.7     500.2518    -153.6845    185.32751    133.39837    135.03432     153.6845    1.0349579 
   11760    3338566.5    501.21365   -120.02035    185.39914    133.39503    134.99344    120.02035    1.0357445 
   11780    3340170.4    500.01999   -337.57703    185.47078    133.38984    135.01138    337.57703    1.0365312 
   11800    3341508.8    501.94976   -544.78167    185.54242    133.38407    135.01917    544.78167    1.0373178 
   11820    3339459.8    500.56125   -306.17835    185.61406    133.32856    134.94045    306.17835    1.0381044 
   11840    3337878.8    501.07232   -110.89839     185.6857    133.25668    134.89726    110.89839     1.038891 
   11860    3338104.9    500.01666   -411.21962    185.75733    133.22955    134.88183    411.21962    1.0396776 
   11880    3339924.3    501.12449    -664.2384    185.82897    133.20189    134.93133     664.2384    1.0404642 
   11900      3340702    499.49466   -635.70743    185.90061    133.16445    134.94867    635.70743    1.0412508 
   11920      3340316    500.07094   -316.20146    185.97225    133.13847    134.90742    316.20146    1.0420374 
   11940    3340717.8    499.86919   -222.86599    186.04389    133.12083    134.88957    222.86599     1.042824 
   11960    3341780.9    500.02162   -263.62891    186.11552    133.10768    134.89389    263.62891    1.0436106 
   11980    3343749.1    499.93981    -528.5749    186.18716    133.15045    134.87806     528.5749    1.0443972 
   12000    3344350.4    499.49555   -396.77064     186.2588    133.09918    134.90237    396.77064    1.0451839 
   12020    3343682.8    499.67842   -149.28985    186.33044    133.08357    134.83941    149.28985    1.0459705 
   12040    3345567.6    500.87223   -343.14966    186.40208    133.07255    134.87472    343.14966    1.0467571 
   12060      3347571    499.71652   -535.22347    186.47371    133.07836    134.89776    535.22347    1.0475437 
   12080    3349535.1     499.9678   -740.76588    186.54535    133.12102    134.88184    740.76588    1.0483303 
   12100    3349341.9    499.02719   -605.95779    186.61699    133.11112    134.83231    605.95779    1.0491169 
   12120    3349051.8     499.1077   -470.01353    186.68863    133.08689    134.79343    470.01353    1.0499035 
   12140    3349636.5    500.58693     -326.578    186.76027    133.06959    134.78277      326.578    1.0506901 
   12160      3350875    500.21741   -333.37676     186.8319    133.06917    134.78133    333.37676    1.0514767 
   12180    3352911.1    499.80758   -435.12751    186.90354    133.09006    134.79038    435.12751    1.0522633 
   12200    3354150.2     500.9999     -495.676    186.97518    133.11576    134.76251      495.676    1.0530499 
   12220    3354370.4    500.90786   -506.54207    187.04682    133.12166    134.71377    506.54207    1.0538366 
   12240    3354601.3    500.02426   -446.87289    187.11846    133.10516    134.68815    446.87289    1.0546232 
   12260    3354938.9     499.9573   -400.50228    187.19009    133.11501    134.64019    400.50228    1.0554098 
   12280      3355333     500.4384    -273.8743    187.26173    133.09429    134.62544     273.8743    1.0561964 
   12300    3356271.3    500.74865   -435.78869    187.33337    133.05773    134.64859    435.78869     1.056983 
   12320    3355161.3    501.41434   -217.26768    187.40501      133.035    134.57559    217.26768    1.0577696 
   12340    3355738.6    501.54967   -262.30134    187.47665    132.98958    134.59327    262.30134    1.0585562 
   12360    3356844.4    498.94871   -375.71197    187.54828    132.98838     134.5874    375.71197    1.0593428 
   12380    3356230.5    500.71145   -465.14338    187.61992     132.9316    134.56887    465.14338    1.0601294 
   12400    3356441.8    500.77979   -459.37135    187.69156    132.95826      134.499    459.37135     1.060916 
   12420    3357116.7    499.33612   -310.81964     187.7632    132.91999    134.51344    310.81964    1.0617026 
   12440    3357456.5    498.90661   -384.08941    187.83484    132.89292    134.50314    384.08941    1.0624893 
   12460    3358418.3    499.89067   -493.51385    187.90647    132.87771    134.50576    493.51385    1.0632759 
   12480    3358406.5    500.24567   -473.58914    187.97811    132.87497    134.45681    473.58914    1.0640625 
   12500    3358725.7    499.62033   -426.53552    188.04975    132.81598    134.47806    426.53552    1.0648491 
   12520    3360142.1     499.1712    -442.8378    188.12139     132.8166    134.48291     442.8378    1.0656357 
   12540    3361423.8    498.66266   -414.64433    188.19303    132.78271    134.51732    414.64433    1.0664223 
   12560    3362685.4    500.45777   -549.38459    188.26466    132.76297    134.53661    549.38459    1.0672089 
   12580    3363383.9    500.35666    -460.8716     188.3363    132.72687    134.54995     460.8716    1.0679955 
   12600      3363369    500.78428    -140.4541    188.40794     132.6176    134.60902     140.4541    1.0687821 
   12620    3364101.9    500.26489   -241.04099    188.47958    132.61791    134.58686    241.04099    1.0695687 
   12640    3365348.2    501.39124   -348.57616    188.55122    132.59354     134.6103    348.57616    1.0703553 
   12660    3366116.3    499.53316   -218.06791    188.62285    132.54874    134.63538    218.06791     1.071142 
   12680    3367357.8     499.0735   -244.17023    188.69449    132.51454    134.66865    244.17023    1.0719286 
   12700    3367542.4    499.59708      -257.74    188.76613    132.49626     134.6435       257.74    1.0727152 
   12720    3366984.2    500.35293   -273.29238    188.83777    132.45816    134.60881    273.29238    1.0735018 
   12740      3370153    499.49668   -531.06674    188.90941    132.53972    134.60153    531.06674    1.0742884 
   12760    3371492.9    497.87511   -577.33745    188.98104    132.54136    134.60233    577.33745     1.075075 
   12780    3371298.2    498.65759   -418.23703    189.05268    132.55799    134.52668    418.23703    1.0758616 
   12800      3370947    499.10419   -260.06002    189.12432    132.52038    134.49988    260.06002    1.0766482 
   12820    3370621.8    498.53247   -268.19817    189.19596    132.50622    134.45034    268.19817    1.0774348 
   12840    3371924.8    499.91834   -189.72633     189.2676    132.46146    134.49684    189.72633    1.0782214 
   12860    3372004.9     498.2563    -233.1861    189.33923    132.41156    134.49981     233.1861     1.079008 
   12880    3373653.7    498.91036   -307.33923    189.41087    132.42971    134.49625    307.33923    1.0797947 
   12900    3373941.1    499.35138   -230.15491    189.48251    132.39091    134.49625    230.15491    1.0805813 
   12920    3375280.3    499.69937   -358.64774    189.55415    132.42336    134.46584    358.64774    1.0813679 
   12940    3376231.6    498.83454   -370.99666    189.62579     132.3908    134.48599    370.99666    1.0821545 
   12960    3377708.5    499.53492      -593.16    189.69742    132.41107    134.47342       593.16    1.0829411 
   12980    3378538.8    499.31073   -417.30098    189.76906    132.38299    134.48421    417.30098    1.0837277 
   13000    3380369.5     499.8444    -475.0874     189.8407    132.40488    134.48408     475.0874    1.0845143 
   13020    3381681.4    500.51518   -460.32979    189.91234    132.37552    134.51535    460.32979    1.0853009 
[...]
   36740    4146044.1    500.36223   -207.43201    274.87501    120.06278    125.62911    207.43201    2.0182194 
   36760    4148430.6    500.46427   -403.45881    274.94664    120.07082    125.66025    403.45881     2.019006 
   36780    4148191.4    501.48667   -231.22251    275.01828    120.07647    125.61436    231.22251    2.0197926 
   36800    4148144.8    499.43149   -60.741293    275.08992    120.01967    125.63968    60.741293    2.0205792 
   36820    4149666.1    500.04839   -169.39333    275.16156    120.06837    125.60207    169.39333    2.0213658 
   36840    4150049.5    502.08697   -246.85211     275.2332     120.0962    125.55187    246.85211    2.0221524 
   36860    4151570.1    500.71269   -137.03891    275.30483    120.13846    125.52102    137.03891    2.0229391 
   36880    4149509.2    501.02571   -94.124885    275.37647    120.08531    125.48159    94.124885    2.0237257 
   36900    4150434.9     500.2603   -63.357193    275.44811     120.0993    125.46232    63.357193    2.0245123 
   36920    4154390.5    502.05945   -113.79399    275.51975    120.14023    125.50648    113.79399    2.0252989 
   36940    4155736.6    501.59492   -83.075631    275.59139    120.16128    125.49252    83.075631    2.0260855 
   36960    4156287.4    500.66239   -212.83276    275.66302    120.15545    125.48262    212.83276    2.0268721 
   36980    4156809.3    498.19567   -284.08867    275.73466     120.1707    125.44985    284.08867    2.0276587 
   37000    4156497.3    500.54147   -237.85117     275.8063    120.18981    125.38791    237.85117    2.0284453 
   37020    4157101.3    499.64254   -181.51938    275.87794    120.16977    125.39448    181.51938    2.0292319 
   37040    4156309.5    500.39763    -174.8789    275.94958    120.17177    125.33596     174.8789    2.0300185 
   37060    4158084.2    499.52569   -112.80246    276.02121    120.18455     125.3436    112.80246    2.0308051 
   37080    4160439.2    499.89845   -257.83919    276.09285    120.16886    125.39842    257.83919    2.0315918 
   37100    4160271.9    499.29655   -255.82703    276.16449    120.15745    125.37276    255.82703    2.0323784 
   37120    4161507.6    499.57388   -190.87254    276.23613    120.18419    125.34957    190.87254     2.033165 
   37140    4160730.6    500.49317    23.587033    276.30777    120.11471    125.36615   -23.587033    2.0339516 
   37160    4160314.9    500.47312    18.648402     276.3794    120.09765    125.33894   -18.648402    2.0347382 
   37180    4160835.9    500.73593   -141.55697    276.45104    120.11714    125.30181    141.55697    2.0355248 
   37200    4163460.2    500.97563   -359.67819    276.52268    120.12319    125.34206    359.67819    2.0363114 
   37220    4164387.4     499.8083   -443.03117    276.59432    120.14919    125.31038    443.03117     2.037098 
   37240    4162608.2    499.04521   -342.30714    276.66596    120.12743    125.24709    342.30714    2.0378846 
   37260    4161528.1     499.2759   -52.037778    276.73759    120.10639     125.2041    52.037778    2.0386712 
   37280    4163187.5    500.80766   -205.08544    276.80923    120.10138    125.22684    205.08544    2.0394579 
   37300    4165199.8    499.35812   -373.13835    276.88087    120.11401    125.24178    373.13835    2.0402445 
   37320      4164001    500.23694   -270.82132    276.95251    120.12284    125.16415    270.82132    2.0410311 
   37340    4162674.4    499.84369   -34.236267    277.02415    120.05692    125.16059    34.236267    2.0418177 
   37360    4162749.9    500.23864    81.870402    277.09578    120.03022    125.15834   -81.870402    2.0426043 
   37380    4165391.5    499.90513   -183.07921    277.16742    120.09032    125.14273    183.07921    2.0433909 
   37400    4165553.9    499.58278    -376.8237    277.23906    120.02843    125.17979     376.8237    2.0441775 
   37420    4165063.2    498.90554   -286.01554     277.3107    119.99223    125.17045    286.01554    2.0449641 
   37440    4163469.6    499.19121   -76.322931    277.38234    119.99991    125.08225    76.322931    2.0457507 
   37460    4165472.2     499.2389   -99.417997    277.45397    119.99241    125.11792    99.417997    2.0465373 
   37480    4167122.3    498.95311   -286.68276    277.52561    120.03277    125.09309    286.68276    2.0473239 
   37500    4168964.6    499.63122   -388.57376    277.59725    120.04551    125.10283    388.57376    2.0481106 
   37520    4168484.7    498.28091    -162.3016    277.66889     120.0416    125.06022     162.3016    2.0488972 
   37540    4167737.1    498.66277     -139.058    277.74053    120.04702    124.99991      139.058    2.0496838 
   37560    4168880.6    499.32976   -176.04616    277.81216    120.04568    125.00335    176.04616    2.0504704 
   37580    4167288.8    499.05544   -174.50484     277.8838    120.00193    124.96895    174.50484     2.051257 
   37600    4166793.6    499.15746   -125.24353    277.95544    119.99728    124.92674    125.24353    2.0520436 
   37620    4166975.5    500.38579   -143.33284    278.02708    119.99943    124.89777    143.33284    2.0528302 
   37640    4169633.3    499.93829   -219.55633    278.09872    120.06438    124.87764    219.55633    2.0536168 
   37660    4172512.5     499.4606   -369.56233    278.17035    120.05687    124.93951    369.56233    2.0544034 
   37680    4171596.5    500.28594   -289.12389    278.24199    120.01308    124.92549    289.12389      2.05519 
   37700    4170729.4    500.92004   -178.08792    278.31363    120.02236    124.85771    178.08792    2.0559766 
   37720    4173308.7    500.08821   -224.40954    278.38527    120.05686    124.86689    224.40954    2.0567633 
   37740    4173685.2    500.21348   -60.742423    278.45691    120.04666    124.85663    60.742423    2.0575499 
   37760    4174192.5    499.38084   -110.80676    278.52854    120.02411    124.86315    110.80676    2.0583365 
   37780    4174655.3    500.57464   -127.99018    278.60018    120.02947     124.8393    127.99018    2.0591231 
   37800    4176582.4    500.90434   -265.84845    278.67182    120.02486    124.86963    265.84845    2.0599097 
   37820    4178076.9    499.97097   -215.21311    278.74346    120.04651    124.85968    215.21311    2.0606963 
   37840    4176607.3    499.59262   -148.19985     278.8151    119.99011    124.84234    148.19985    2.0614829 
   37860      4177525    499.64913   -272.18223    278.88673    119.93706    124.89291    272.18223    2.0622695 
   37880    4177929.2    499.58885   -273.50113    278.95837    119.93799    124.87196    273.50113    2.0630561 
   37900    4179335.4    499.81365   -337.69518    279.03001    119.96572    124.85305    337.69518    2.0638427 
   37920    4178751.9     500.2239   -331.44558    279.10165    119.96292    124.80649    331.44558    2.0646293 
   37940    4179043.4    499.95333   -371.73732    279.17329    119.93512    124.81208    371.73732     2.065416 
   37960    4178900.6    500.56001   -252.62372    279.24492    119.90122    124.81108    252.62372    2.0662026 
   37980    4177771.2    501.22308   -216.93072    279.31656    119.85528    124.79317    216.93072    2.0669892 
   38000    4177275.4    499.98507   -168.47107     279.3882    119.80466    124.79907    168.47107    2.0677758 
   38020    4178725.4     499.5226   -93.086976    279.45984    119.74474    124.87284    93.086976    2.0685624 
   38040    4178954.1    498.91109   -70.534428    279.53148    119.70413    124.89002    70.534428     2.069349 
   38060    4180932.9    499.30245    -85.15507    279.60311    119.67097    124.95177     85.15507    2.0701356 
   38080    4183612.3    499.27266   -245.39326    279.67475    119.68394    124.98627    245.39326    2.0709222 
   38100    4184700.1    498.77141   -135.52921    279.74639    119.68423    124.98645    135.52921    2.0717088 
   38120    4186150.8    500.12281   -244.04887    279.81803     119.7253    124.95489    244.04887    2.0724954 
   38140    4185261.7    499.66799   -126.50466    279.88967    119.69132    124.93182    126.50466     2.073282 
   38160    4190063.2    499.21698   -378.47934     279.9613    119.75011    124.98176    378.47934    2.0740687 
   38180      4193264    499.88363   -574.08661    280.03294    119.78589    125.00789    574.08661    2.0748553 
   38200    4192803.4    500.03831    -336.9195    280.10458    119.80173    124.94566     336.9195    2.0756419 
   38220    4193638.6    500.90758   -102.55171    280.17622    119.75374    124.98867    102.55171    2.0764285 
   38240      4195267    500.64066   -88.374806    280.24786    119.73912     125.0205    88.374806    2.0772151 
   38260    4195968.3    500.23052   -148.18059    280.31949    119.73412    125.01467    148.18059    2.0780017 
   38280      4196913    501.13963   -46.961551    280.39113    119.75163    124.99258    46.961551    2.0787883 
   38300    4197190.5    500.26395    79.550349    280.46277    119.77556    124.94396   -79.550349    2.0795749 
   38320    4199409.4    501.12208   -88.233591    280.53441    119.80753    124.94474    88.233591    2.0803615 
   38340    4200538.7    499.97686    -290.6807    280.60605    119.83343    124.91942     290.6807    2.0811481 
   38360    4201988.7    500.07983    -332.1653    280.67768    119.82622    124.93817     332.1653    2.0819347 
   38380      4203231    501.32263   -516.46814    280.74932     119.8278    124.94158    516.46814    2.0827214 
   38400    4200266.6    500.22418   -381.77043    280.82096    119.78185    124.86949    381.77043     2.083508 
   38420    4199790.6    499.76967   -145.18296     280.8926    119.77177      124.834    145.18296    2.0842946 
   38440    4200273.6    501.56171   -31.658726    280.96424    119.77501    124.81314    31.658726    2.0850812 
   38460    4202671.2     499.8552   -134.82844    281.03587    119.82211    124.80347    134.82844    2.0858678 
   38480      4203039    500.40838   -336.81132    281.10751    119.83234    124.77194    336.81132    2.0866544 
   38500    4201783.8     499.2949   -210.34556    281.17915    119.83484     124.7003    210.34556     2.087441 
   38520    4202066.2    498.72965   -150.67138    281.25079     119.8023    124.71078    150.67138    2.0882276 
   38540    4203990.5    499.23097    -321.4498    281.32243    119.81498    124.72292     321.4498    2.0890142 
   38560    4204281.4    500.24303    -335.8344    281.39406    119.80679    124.70832     335.8344    2.0898008 
   38580    4205727.5    500.19628   -356.94962     281.4657    119.80844    124.71774    356.94962    2.0905874 
   38600    4206814.6    500.30059   -239.28604    281.53734    119.79885    124.72822    239.28604    2.0913741 
   38620      4204968     500.7014   -12.796777    281.60898    119.78341    124.65782    12.796777    2.0921607 
   38640    4206602.3    500.45353   -41.616609    281.68062    119.82139    124.63504    41.616609    2.0929473 
   38660      4208028    500.00241   -321.99702    281.75225    119.82123    124.64574    321.99702    2.0937339 
   38680    4207695.5    499.50107   -261.06094    281.82389    119.81635    124.60929    261.06094    2.0945205 
   38700    4205111.8    499.61099   -119.29299    281.89553    119.74291    124.57748    119.29299    2.0953071 
   38720    4206518.8    500.43724     2.367899    281.96717    119.74403    124.58634    -2.367899    2.0960937 
   38740    4209528.3    500.41131   -27.860062    282.03881    119.76261    124.62447    27.860062    2.0968803 
   38760    4211708.1    499.53517   -371.41339    282.11044    119.79947    124.61898    371.41339    2.0976669 
   38780    4212354.4    500.66387   -350.33545    282.18208    119.79285    124.61335    350.33545    2.0984535 
   38800    4212467.7    501.03776   -296.56305    282.25372    119.78647    124.59171    296.56305    2.0992401 
   38820    4215100.2    500.43372    -243.4325    282.32536    119.81229    124.61107     243.4325    2.1000268 
   38840    4213976.9    499.67491   -91.626649      282.397    119.81097    124.54763    91.626649    2.1008134 
   38860    4214550.4    501.01785   -192.51468    282.46863    119.78425    124.56077    192.51468       2.1016 
   38880    4217826.6    500.79802    -113.5367    282.54027    119.83093    124.57744     113.5367    2.1023866 
   38900    4220240.2      500.151   -210.38549    282.61191    119.86365    124.58312    210.38549    2.1031732 
   38920    4220423.3    500.56602    -298.8648    282.68355    119.84927     124.5719     298.8648    2.1039598 
   38940    4219646.7    500.47158   -400.19723    282.75519    119.84694    124.51984    400.19723    2.1047464 
   38960    4221427.8    500.99184   -334.69969    282.82682    119.83597    124.55225    334.69969     2.105533 
   38980    4224775.8    500.04453   -435.36595    282.89846    119.89525    124.55784    435.36595    2.1063196 
   39000    4224025.9    500.11686   -240.29548     282.9701     119.8554    124.54561    240.29548    2.1071062 
   39020    4221905.1    499.75974     149.7319    283.04174    119.79317    124.51622    -149.7319    2.1078928 
   39040    4223198.3    498.78981   -60.069742    283.11338    119.80301    124.51262    60.069742    2.1086795 
   39060    4225442.8    499.33774   -201.09548    283.18501    119.82639    124.52298    201.09548    2.1094661 
   39080    4225296.5     499.1517   -333.37057    283.25665    119.79227    124.52263    333.37057    2.1102527 
   39100    4223861.3    499.50623   -148.37631    283.32829    119.73258     124.5109    148.37631    2.1110393 
   39120    4226270.5    499.61343   -91.143755    283.39993    119.74525    124.53725    91.143755    2.1118259 
   39140    4227140.3    499.11703   -220.02249    283.47157    119.73002    124.54724    220.02249    2.1126125 
   39160      4228397    499.73348   -317.84616     283.5432    119.74726    124.53486    317.84616    2.1133991 
   39180    4227485.4    499.31058   -282.75984    283.61484    119.74205    124.48197    282.75984    2.1141857 
   39200    4226529.9    499.05628    -113.0901    283.68648    119.68257    124.48424     113.0901    2.1149723 
   39220    4227646.9    500.43659   -159.68316    283.75812     119.6498     124.5198    159.68316    2.1157589 
   39240    4232029.9    499.71965   -262.86643    283.82976    119.73913    124.52448    262.86643    2.1165456 
   39260      4232269    500.21107   -259.85048    283.90139    119.73291    124.50655    259.85048    2.1173322 
   39280    4230881.8    500.22818   -122.55577    283.97303    119.73498    124.43219    122.55577    2.1181188 
   39300    4231519.7    500.28233    -27.90785    284.04467    119.65952    124.49802     27.90785    2.1189054 
   39320      4233761    499.90901   -106.85891    284.11631     119.7117    124.47828    106.85891     2.119692 
   39340    4237559.6     500.6115   -339.13899    284.18795    119.77013    124.49779    339.13899    2.1204786 
   39360    4237630.4    500.31254   -292.45564    284.25958    119.73058    124.50961    292.45564    2.1212652 
   39380    4238086.3    501.70004   -181.38877    284.33122    119.74871    124.47278    181.38877    2.1220518 
   39400    4239273.6    501.34171   -154.04859    284.40286    119.70478    124.52197    154.04859    2.1228384 
   39420    4237568.5    501.87628    -178.0901     284.4745    119.65104    124.49644     178.0901     2.123625 
   39440    4237417.9    501.55343   -94.208333    284.54614    119.70323     124.4064    94.208333    2.1244116 
   39460    4240668.5    502.01643   -211.27892    284.61777    119.75717    124.41443    211.27892    2.1251983 
   39480    4240517.9    501.06661   -275.60009    284.68941    119.71242    124.42521    275.60009    2.1259849 
   39500    4241885.7    501.19629   -204.48645    284.76105     119.6933    124.45391    204.48645    2.1267715 
   39520    4243305.5    499.38764    -227.6444    284.83269    119.70776    124.44922     227.6444    2.1275581 
   39540    4242959.8    500.02109   -80.880952    284.90433    119.71887    124.39625    80.880952    2.1283447 
   39560    4243558.8    500.99309   -64.661948    284.97596    119.66659    124.43687    64.661948    2.1291313 
   39580    4246089.9    500.20745   -282.73895     285.0476    119.69468    124.45058    282.73895    2.1299179 
   39600    4248532.1    500.18915    -203.9549    285.11924    119.71035    124.47459     203.9549    2.1307045 
   39620    4248773.5    499.90716   -195.24622    285.19088    119.69367    124.46773    195.24622    2.1314911 
   39640    4251672.6    500.58414    -194.5877    285.26252    119.71867    124.49538     194.5877    2.1322777 
   39660    4251785.6    500.45465   -291.95196    285.33415    119.68397    124.50351    291.95196    2.1330643 
   39680    4251015.7    500.53613   -204.70989    285.40579    119.63335    124.50238    204.70989     2.133851 
   39700    4249104.4    500.08767   -55.380748    285.47743    119.57272    124.47826    55.380748    2.1346376 
   39720    4250578.5    499.66648   -219.86519    285.54907      119.576    124.48679    219.86519    2.1354242 
   39740    4252036.7    500.13452   -214.72356    285.62071    119.58934    124.48438    214.72356    2.1362108 
   39760    4250913.3     500.4665   -172.41975    285.69234    119.53626    124.47553    172.41975    2.1369974 
   39780    4250205.8    498.75401   -145.64552    285.76398    119.50174    124.45955    145.64552     2.137784 
   39800      4252260    499.78181   -119.59685    285.83562    119.56609     124.4215    119.59685    2.1385706 
   39820    4253401.3    500.39544   -264.30678    285.90726     119.5533    124.43702    264.30678    2.1393572 
   39840    4251881.1    500.25917   -220.28407     285.9789    119.53557    124.37983    220.28407    2.1401438 
   39860    4251649.3     499.6682    -221.1952    286.05053    119.53951     124.3378     221.1952    2.1409304 
   39880    4251880.6    499.98768   -24.001026    286.12217    119.52118     124.3325    24.001026     2.141717 
   39900    4252380.4    500.06395   -126.63325    286.19381    119.48277    124.35595    126.63325    2.1425037 
   39920    4252917.2    500.23029   -107.33627    286.26545    119.48417    124.33907    107.33627    2.1432903 
   39940    4254595.2    498.76236   -202.27457    286.33709     119.4836     124.3576    202.27457    2.1440769 
   39960    4254521.3    498.91777   -145.29224    286.40872    119.41058    124.40037    145.29224    2.1448635 
   39980    4255142.6    500.05004   -141.49007    286.48036    119.40713    124.39101    141.49007    2.1456501 
   40000    4257229.9    499.60759   -259.91684      286.552    119.42553    124.40174    259.91684    2.1464367 
Loop time of 6166.41 on 64 procs for 40000 steps with 212040 atoms

Performance: 0.560 ns/day, 42.822 hours/ns, 6.487 timesteps/s
99.7% CPU use with 64 MPI tasks x 1 OpenMP threads

MPI task timing breakdown:
Section |  min time  |  avg time  |  max time  |%varavg| %total
---------------------------------------------------------------
Pair    | 1011.9     | 1648.9     | 2338.7     | 694.3 | 26.74
Bond    | 116.96     | 158.25     | 188.89     | 142.9 |  2.57
Kspace  | 281.72     | 1001.5     | 1679.9     | 946.3 | 16.24
Neigh   | 3149.4     | 3169       | 3185.9     |  17.0 | 51.39
Comm    | 106.78     | 130.55     | 158.9      | 110.6 |  2.12
Output  | 2.1823     | 2.2304     | 2.2608     |   0.9 |  0.04
Modify  | 42.544     | 51.764     | 60.152     |  58.3 |  0.84
Other   |            | 4.232      |            |       |  0.07

Nlocal:        3313.12 ave        4731 max        1605 min
Histogram: 4 4 3 5 12 9 10 6 5 6
Nghost:        16603.8 ave       21982 max       11752 min
Histogram: 2 9 7 11 12 7 0 5 6 5
Neighs:    1.63048e+06 ave  2.8063e+06 max      614191 min
Histogram: 7 3 6 11 12 9 4 1 7 4

Total # of neighbors = 1.0435074e+08
Ave neighs/atom = 492.12762
Ave special neighs/atom = 5.9990568
Neighbor list builds = 40000
Dangerous builds not checked
Total wall time: 1:42:51
