LAMMPS (29 Oct 2020)
OMP_NUM_THREADS environment is not set. Defaulting to 1 thread. (../comm.cpp:94)
  using 1 OpenMP thread(s) per MPI task
####################################################
#    This program is free software: you can redistribute it and/or modify
#    it under the terms of the GNU General Public License as published by
#    the Free Software Foundation, either version 3 of the License, or
#    (at your option) any later version.
#
#    This program is distributed in the hope that it will be useful,
#    but WITHOUT ANY WARRANTY; without even the implied warranty of
#    MERCHANTABILITY or FITNESS FOR A PARTICULAR PURPOSE.  See the
#    GNU General Public License for more details.


units		real        ## defines the units style used herein. More information: https://docs.lammps.org/units.html
atom_style	full        ## defines the atom style used herein. More information: https://docs.lammps.org/atom_style.html

# Styles
pair_style      lj/cut/coul/long 15.0 10.0      ## sets the formula(s) LAMMPS uses to compute pairwise interactions; here, lennard-jones (LJ) with long-range Coulomb interaction. More: https://docs.lammps.org/pair_lj_cut_coul.html
pair_modify     shift no                        ## the shift keyword determines whether a Lennard-Jones potential is shifted at its cutoff to 0.0. More: https://docs.lammps.org/pair_modify.html
kspace_style    pppm 1.0e-4                     ## defines a long-range solver for LAMMPS to compute long-range Coulombic interactions. Note: requires use of a matching pair style, i.e. PPPM with coul/long. More: https://docs.lammps.org/kspace_style.html
bond_style      harmonic                        ## defined based off the forcefield used to construct the system; models the atoms' interactions
angle_style     harmonic
dihedral_style  opls
improper_style  cvff
special_bonds   lj 0 0 1 coul 0 0 1

read_data       300K_TRP.lmps      ## input lammps datafile, equilibriated until structure nears experimental properties
Reading data file ...
  orthogonal box = (228.75783 228.75783 228.75783) to (371.24217 371.24217 371.24217)
  4 by 4 by 4 MPI processor grid
  reading atoms ...
  212040 atoms
  reading velocities ...
  212040 velocities
  scanning bonds ...
  2 = max bonds/atom
  scanning angles ...
  6 = max angles/atom
  scanning dihedrals ...
  15 = max dihedrals/atom
  scanning impropers ...
  2 = max impropers/atom
  reading bonds ...
  236020 bonds
  reading angles ...
  399920 angles
  reading dihedrals ...
  615800 dihedrals
  reading impropers ...
  127960 impropers
Finding 1-2 1-3 1-4 neighbors ...
  special bond factors lj:    0.0      0.0      1.0     
  special bond factors coul:  0.0      0.0      1.0     
     4 = max # of 1-2 neighbors
    10 = max # of 1-3 neighbors
    14 = max # of special neighbors
  special bonds CPU = 1.353 seconds
  read_data CPU = 3.612 seconds

dielectric      1.0
neighbor    	1.0 bin
neigh_modify	delay 0 every 1 check no        ## this is to make sure that the neighbor list is updated every timestep, and the atoms don't get lost as the system is being deformed ##

timestep	    1.0                             ## unit = fs, per "real" unit style
run_style       verlet                          ## defines algorithm used for simulation computation; verlet integration is a numerical method used to integrate Newton's equations of motion.

variable stress equal press*-1                         ## computes stress as the negative of press values
variable engStrain equal (lx-91.07191)/91.07191      ## computes engineering strain; lx_0 must be found and inputted manually (for now)

thermo		    20                                                               ## output log data (headers in thermo_style), recorded at every timestep in numList.txt
thermo_style    custom step vol temp press lx ly lz v_stress v_engStrain         ## data headers of output log file. More: https://docs.lammps.org/thermo_style.html

################# Deformation ##################

fix 1 all npt temp 300 300 100 y 1 1 100.0 z 1 1 100.0      ## stress normal to the x direction can vary; external pressure (y and z) = 1atm ##

fix 2 all deform 1 x scale 2.0 remap x                      ## sets a uniaxial (x-direction) deformation in motion, scaling a set amount (here, 4.0x) the initial length


################# Dumping ##################

reset_timestep 0

dump dump2 all custom 20000 sim.lammpstrj id mol type q xs ys zs ix iy iz

restart 40000 PMP.restart

run 		400000              ## this depends on the overall strain rate, where strain rate = deformScale / runTimeSteps (consider units!)
PPPM initialization ...
WARNING: System is not charge neutral, net charge = 0.034008 (../kspace.cpp:313)
  using 12-bit tables for long-range coulomb (../kspace.cpp:328)
  G vector (1/distance) = 0.20820024
  grid = 40 40 40
  stencil order = 5
  estimated absolute RMS force accuracy = 0.028258287
  estimated relative force accuracy = 8.5098991e-05
  using double precision FFTW3
  3d grid and FFT values/proc = 3375 1000
Neighbor list info ...
  update every 1 steps, delay 0 steps, check no
  max neighbors/atom: 2000, page size: 100000
  master list distance cutoff = 16
  ghost atom cutoff = 16
  binsize = 8, bins = 18 18 18
  1 neighbor lists, perpetual/occasional/extra = 1 0 0
  (1) pair lj/cut/coul/long, perpetual
      attributes: half, newton on
      pair build: half/bin/newton
      stencil: half/bin/3d/newton
      bin: standard
Per MPI rank memory allocation (min/avg/max) = 36.55 | 39.27 | 40.16 Mbytes
Step Volume Temp Press Lx Ly Lz v_stress v_engStrain 
       0    2892686.5    300.30718     14304.26    142.48434    142.48434    142.48434    -14304.26   0.56452561 
      20    2913872.9    306.24626     2228.674    142.49146    143.01333    142.98987    -2228.674   0.56460384 
      40    2936046.8     305.2312    1223.5451    142.49858    143.56581    143.51636   -1223.5451   0.56468206 
      60    2931219.4    305.54483   -46.985189    142.50571    143.45572    143.38318    46.985189   0.56476029 
      80    2924480.8    305.52567    90.278071    142.51283     143.2616    143.24023   -90.278071   0.56483851 
     100    2925506.2    305.39234   -110.62116    142.51996    143.28943    143.25546    110.62116   0.56491674 
     120    2922644.5    302.51141   -636.45365    142.52708    143.24284    143.15472    636.45365   0.56499497 
     140      2916310    303.78421   -678.37751     142.5342    143.07437     143.0055    678.37751   0.56507319 
     160    2911328.5    303.19157   -505.35363    142.54133    142.95689     142.8714    505.35363   0.56515142 
     180    2913518.2    304.02594   -857.96962    142.54845    143.01256    142.91606    857.96962   0.56522965 
     200    2909167.6    302.88289   -190.61499    142.55558    142.88034    142.82758    190.61499   0.56530787 
     220    2909920.3    302.62766   -469.88687     142.5627    142.91817    142.81957    469.88687    0.5653861 
     240    2910038.2    302.27418     322.6504    142.56983    142.89816    142.83822    -322.6504   0.56546432 
     260    2903937.5     302.0285    464.53625    142.57695    142.72049    142.70909   -464.53625   0.56554255 
     280    2905102.2    300.86584    641.63661    142.58407    142.79351    142.68618   -641.63661   0.56562078 
     300    2905442.9    301.07273   -423.32553     142.5912    142.82261    142.66671    423.32553     0.565699 
     320    2904830.9    301.60246    680.89108    142.59832    142.79855    142.65356   -680.89108   0.56577723 
     340    2903601.1    301.62341   -483.84924    142.60545    142.78005    142.60452    483.84924   0.56585546 
     360    2903889.9    300.31674    -88.92078    142.61257    142.79742    142.59424     88.92078   0.56593368 
     380    2907627.2    300.71129    -87.67626     142.6197    142.87634    142.69176     87.67626   0.56601191 
     400    2906936.1    299.87792    -356.1263    142.62682    142.85967    142.66736     356.1263   0.56609013 
     420    2907594.8    300.50622   -225.63988    142.63394     142.8967    142.65559    225.63988   0.56616836 
     440      2906756    300.17883    381.39207    142.64107    142.88868    142.61532   -381.39207   0.56624659 
     460    2908051.1    299.86909    2.3526089    142.64819    142.91325     142.6472   -2.3526089   0.56632481 
     480    2907139.7    299.27473   -67.890434    142.65532    142.89684    142.61175    67.890434   0.56640304 
     500    2908303.8    299.68842   -74.952084    142.66244    142.91525    142.64336    74.952084   0.56648127 
     520    2908011.6    299.10964    169.60674    142.66957    142.88766    142.64944   -169.60674   0.56655949 
     540    2911399.2    299.10023   -265.59586    142.67669    142.96339    142.73284    265.59586   0.56663772 
     560    2911622.5    299.35706    -130.2461    142.68381    142.94069    142.75932     130.2461   0.56671595 
     580    2909686.9    299.35058    68.432755    142.69094    142.91214    142.68579   -68.432755   0.56679417 
     600    2911708.7    299.32742    72.125666    142.69806    142.95496    142.73504   -72.125666    0.5668724 
     620    2912869.5    299.37787   -283.15227    142.70519    142.96194    142.77785    283.15227   0.56695062 
     640    2912387.5    298.60674    124.36388    142.71231    142.91086    142.79812   -124.36388   0.56702885 
     660    2912637.2    299.30327   -97.244293    142.71943    142.91952    142.79458    97.244293   0.56710708 
     680    2911479.7    299.43194    107.16702    142.72656     142.9092    142.74101   -107.16702    0.5671853 
     700    2911187.1    299.66481   -156.90106    142.73368    142.92582    142.70295    156.90106   0.56726353 
     720      2910964    299.76414    22.973539    142.74081    142.91167    142.69902   -22.973539   0.56734176 
     740    2910852.1    300.35077   -197.44381    142.74793    142.91935    142.67874    197.44381   0.56741998 
     760      2910546    300.76346    288.17487    142.75506    142.91665    142.65931   -288.17487   0.56749821 
     780    2911203.4     300.6067   -150.14013    142.76218    142.92936    142.67174    150.14013   0.56757643 
     800    2911167.5    300.64466     336.3352     142.7693    142.90906    142.68312    -336.3352   0.56765466 
     820    2909330.3    300.73202   -92.378837    142.77643    142.83054    142.66434    92.378837   0.56773289 
     840      2909959    301.23369    60.395512    142.78355    142.84161    142.67699   -60.395512   0.56781111 
     860    2909875.7    300.41307     27.47103    142.79068    142.84143    142.66597    -27.47103   0.56788934 
     880    2909386.6    300.19038    173.32741     142.7978    142.80863    142.66764   -173.32741   0.56796757 
     900    2909512.5    300.02768    88.588275    142.80493    142.80959    142.66573   -88.588275   0.56804579 
     920    2911878.6    301.42088    59.662516    142.81205     142.8543    142.72995   -59.662516   0.56812402 
     940    2910624.4    299.70881    83.503374    142.81917    142.77695    142.73863   -83.503374   0.56820224 
     960      2910896     299.9671    25.667812     142.8263    142.78271    142.73908   -25.667812   0.56828047 
     980      2911891    300.21514   -23.899313    142.83342    142.80271    142.76075    23.899313    0.5683587 
    1000    2910649.4    300.23486    206.48771    142.84055    142.74814    142.74731   -206.48771   0.56843692 
    1020    2912887.1    300.34952    -106.2769    142.84767    142.77233    142.82573     106.2769   0.56851515 
    1040      2911762    299.18238    35.329941    142.85479    142.73315    142.80263   -35.329941   0.56859338 
    1060    2913781.6    299.68755   -144.60189    142.86192    142.79019    142.83747    144.60189    0.5686716 
    1080    2913661.5    299.48949   -6.2443755    142.86904    142.77931    142.83534    6.2443755   0.56874983 
    1100    2913274.1    299.65316    -43.27032    142.87617    142.76631    142.82224     43.27032   0.56882805 
    1120      2913178    299.60179    324.83618    142.88329    142.75409    142.82263   -324.83618   0.56890628 
    1140    2914646.2    299.67826   -92.853356    142.89042    142.78985     142.8517    92.853356   0.56898451 
    1160    2913807.2    299.53989    57.427381    142.89754    142.78376    142.80955   -57.427381   0.56906273 
    1180    2913154.7    299.74762    28.230531    142.90466    142.74527    142.80895   -28.230531   0.56914096 
    1200    2915086.9    299.41389   -190.07157    142.91179    142.74304    142.89878    190.07157   0.56921919 
    1220    2914109.1    299.27101   -147.90089    142.91891    142.74696     142.8398    147.90089   0.56929741 
    1240    2915282.6    299.31048   -158.11171    142.92604    142.81508    142.82204    158.11171   0.56937564 
    1260    2914325.8    299.55512    -179.5861    142.93316    142.79187    142.79126     179.5861   0.56945386 
    1280    2915246.7    299.48975    145.61689    142.94029    142.79237    142.82876   -145.61689   0.56953209 
    1300      2913804    300.34669   -69.549059    142.94741     142.7574    142.78593    69.549059   0.56961032 
    1320    2914191.6    299.54688    99.964489    142.95453    142.77834    142.77687   -99.964489   0.56968854 
    1340    2915204.3     299.3099   -80.541033    142.96166    142.79702    142.80068    80.541033   0.56976677 
    1360    2914426.3    300.49497    104.76173    142.96878    142.79919    142.75329   -104.76173     0.569845 
    1380    2915101.7    300.20841   -104.35258    142.97591    142.83597    142.74249    104.35258   0.56992322 
    1400    2913775.2    300.22548    40.628965    142.98303    142.80762    142.69875   -40.628965   0.57000145 
    1420    2914795.8    300.69509   -235.52616    142.99015    142.85909     142.6902    235.52616   0.57007968 
    1440    2913729.5    300.51765   -42.337169    142.99728    142.87734    142.61267    42.337169    0.5701579 
    1460    2914442.5    299.90748    56.928295     143.0044     142.9013    142.61655   -56.928295   0.57023613 
    1480    2915163.1    300.08753    94.472236    143.01153    142.88015    142.66581   -94.472236   0.57031435 
    1500    2916084.5    300.91301   -143.32517    143.01865    142.93371    142.65033    143.32517   0.57039258 
    1520    2914334.9    300.60851    55.675171    143.02578    142.89181    142.59943   -55.675171   0.57047081 
    1540    2915201.8    300.27896   -134.46882     143.0329    142.91025    142.61635    134.46882   0.57054903 
    1560    2916749.9    300.40828   -95.811664    143.04002    142.93884    142.65643    95.811664   0.57062726 
    1580    2916760.2    301.38189   -157.65456    143.04715    142.93901    142.64966    157.65456   0.57070549 
    1600    2916213.3    300.35037    60.905456    143.05427    142.92547    142.62932   -60.905456   0.57078371 
    1620    2917539.1    300.02614   -67.229685     143.0614    142.94776    142.66481    67.229685   0.57086194 
    1640    2917358.7     299.6499   -27.297564    143.06852    142.95067    142.64598    27.297564   0.57094016 
    1660    2917693.5    300.18443   -125.91429    143.07565    142.94171    142.66419    125.91429   0.57101839 
    1680    2917686.6    300.24651   -44.679256    143.08277     142.9028    142.69559    44.679256   0.57109662 
    1700    2917373.2    299.83389    5.4073386    143.08989    142.87317    142.70275   -5.4073386   0.57117484 
    1720    2918610.8    299.89397    152.33796    143.09702    142.91306    142.71634   -152.33796   0.57125307 
    1740    2918312.9    299.58499   -8.3266769    143.10414    142.90244    142.70527    8.3266769    0.5713313 
    1760    2918396.1     299.1101    49.525186    143.11127    142.92033    142.68436   -49.525186   0.57140952 
    1780    2918030.7    299.22828   -174.59417    143.11839    142.90097    142.67874    174.59417   0.57148775 
    1800    2919956.1    299.56318   -171.70027    143.12551    142.93494    142.73184    171.70027   0.57156597 
    1820    2919645.1    299.30891   -145.04359    143.13264    142.98786    142.65671    145.04359    0.5716442 
    1840    2920778.9    299.58748   -97.189179    143.13976    142.99677    142.69612    97.189179   0.57172243 
    1860    2920199.3       299.88   -339.31927    143.14689    142.94666    142.71071    339.31927   0.57180065 
    1880    2921146.7    299.88563   -194.32333    143.15401    142.94601    142.75056    194.32333   0.57187888 
    1900    2921320.1    300.75656   -134.02495    143.16114    142.96987    142.72811    134.02495   0.57195711 
    1920    2919381.5    300.73232    156.43067    143.16826    142.93571    142.66037   -156.43067   0.57203533 
    1940    2919855.1    300.43337    109.14101    143.17538    142.95292    142.65924   -109.14101   0.57211356 
    1960    2919773.5    300.84191    191.86982    143.18251    142.95837    142.64272   -191.86982   0.57219178 
    1980    2920145.3    300.32782   -11.226685    143.18963    142.95793    142.65422    11.226685   0.57227001 
    2000    2919192.8    299.95934    151.57383    143.19676     142.9143    142.64413   -151.57383   0.57234824 
    2020      2920665    300.26506    -176.0269    143.20388    142.94092    142.68239     176.0269   0.57242646 
    2040    2920649.5    300.24898   -77.910535    143.21101    142.88492    142.73045    77.910535   0.57250469 
    2060    2922528.2    300.57243   -278.18655    143.21813    142.90134    142.79875    278.18655   0.57258292 
    2080    2922073.3    299.83902   -126.18059    143.22525    142.89427    142.77648    126.18059   0.57266114 
    2100    2921422.8    300.12475    -190.8771    143.23238    142.87384    142.75802     190.8771   0.57273937 
    2120      2921175    299.95653   -114.18688     143.2395     142.8009    142.81171    114.18688   0.57281759 
    2140    2920844.9    299.94793   -152.33172    143.24663     142.7973    142.79207    152.33172   0.57289582 
    2160    2921484.2     300.2227   -112.89966    143.25375    142.80044    142.81308    112.89966   0.57297405 
    2180    2920222.2    300.18518   -118.29017    143.26088    142.75415    142.79058    118.29017   0.57305227 
    2200    2919938.5    299.92584    16.195271      143.268    142.74588    142.77788   -16.195271    0.5731305 
    2220      2919914    300.63015    16.096883    143.27512    142.72558    142.78988   -16.096883   0.57320873 
    2240    2920142.6    300.46229   -131.90522    143.28225    142.73588    142.78367    131.90522   0.57328695 
    2260    2918722.6    300.68864   -96.815173    143.28937    142.68801      142.755    96.815173   0.57336518 
    2280    2918932.5    299.91825    46.460835     143.2965    142.70153    142.74466   -46.460835   0.57344341 
    2300    2919810.6    299.84485   -232.05551    143.30362    142.71013    142.77189    232.05551   0.57352163 
    2320    2919991.2    299.86911   -218.83035    143.31074    142.70422    142.77953    218.83035   0.57359986 
    2340    2919505.3    300.49843   -174.69579    143.31787    142.68994    142.76296    174.69579   0.57367808 
    2360    2919365.7    300.02487    -86.24767    143.32499    142.66885    142.77015     86.24767   0.57375631 
    2380    2918830.8     300.5451   -138.38308    143.33212     142.6659    142.73984    138.38308   0.57383454 
    2400    2918941.6    299.97466   -43.873762    143.33924    142.66227     142.7418    43.873762   0.57391276 
    2420    2918928.4    300.46835   -184.71301    143.34637    142.62603    142.77033    184.71301   0.57399099 
    2440    2918250.2    299.83603     26.90459    143.35349      142.591    142.76513    -26.90459   0.57406922 
    2460    2918805.2    300.64974   -158.17778    143.36061     142.6075    142.76866    158.17778   0.57414744 
    2480      2918834    300.08535    34.437243    143.36774    142.61179    142.75869   -34.437243   0.57422567 
    2500    2918282.5    299.65462    139.88584    143.37486    142.54451    142.79198   -139.88584   0.57430389 
    2520    2918312.7    299.58879    146.00535    143.38199    142.52834    142.80256   -146.00535   0.57438212 
    2540    2919205.9    299.46991    289.84309    143.38911    142.55145    142.81602   -289.84309   0.57446035 
    2560    2919087.1    299.54382    284.75149    143.39624    142.53365    142.82095   -284.75149   0.57453857 
    2580    2920136.9      299.695    37.210619    143.40336     142.5128    142.88611   -37.210619    0.5746168 
    2600    2919808.8     299.3164    149.02843    143.41048    142.52081    142.85493   -149.02843   0.57469503 
    2620    2921759.7    299.09518   -224.53981    143.41761    142.56855    142.89542    224.53981   0.57477325 
    2640    2922887.5    299.63928    -279.6228    143.42473    142.57764    142.93436     279.6228   0.57485148 
    2660    2921104.7    299.18823   -245.77851    143.43186    142.56767    142.85007    245.77851    0.5749297 
    2680    2922343.6    299.29204   -367.40238    143.43898    142.58267    142.88852    367.40238   0.57500793 
    2700    2922333.1    299.06064   -351.30816     143.4461    142.54169    142.92199    351.30816   0.57508616 
    2720    2921377.3    299.62831   -34.428945    143.45323    142.55654    142.85326    34.428945   0.57516438 
    2740    2920244.5     300.0009   -29.611869    143.46035    142.57262    142.77468    29.611869   0.57524261 
    2760    2920815.3    300.60534    42.956497    143.46748    142.56829    142.79983   -42.956497   0.57532084 
    2780    2921754.8    300.25493   -44.591093     143.4746    142.58431    142.82263    44.591093   0.57539906 
    2800    2921333.2    300.79068   -154.71949    143.48173    142.56729    142.81197    154.71949   0.57547729 
    2820    2920997.2    299.99534     -57.0489    143.48885    142.50135    142.85453      57.0489   0.57555551 
    2840    2921823.6    300.49915   -18.873155    143.49597    142.50881    142.88037    18.873155   0.57563374 
    2860    2921265.6    300.62194    13.579178     143.5031    142.52508    142.82968   -13.579178   0.57571197 
    2880    2921093.4    300.41507    149.28554    143.51022    142.50895    142.83034   -149.28554   0.57579019 
    2900    2921028.7    300.34687    138.35868    143.51735    142.52711    142.80189   -138.35868   0.57586842 
    2920    2920502.5    300.73945    288.53811    143.52447    142.53168    142.76449   -288.53811   0.57594665 
    2940    2920921.2    300.23347    123.67516     143.5316    142.53568    142.77387   -123.67516   0.57602487 
    2960    2921212.4    300.45571    96.389674    143.53872    142.55936    142.75731   -96.389674    0.5761031 
    2980    2921661.7    299.62695    18.592847    143.54584    142.58667    142.74483   -18.592847   0.57618132 
    3000    2921057.4    299.97502   -50.297224    143.55297    142.58352    142.71138    50.297224   0.57625955 
    3020    2920697.9    300.00835    35.873277    143.56009    142.59385    142.67639   -35.873277   0.57633778 
    3040    2922570.9    300.08634   -101.89138    143.56722    142.66839    142.68621    101.89138     0.576416 
    3060    2921776.9     299.7439   -126.63031    143.57434    142.67122    142.63754    126.63031   0.57649423 
    3080    2921367.5    299.95267   -85.690406    143.58146    142.60471      142.677    85.690406   0.57657246 
    3100    2921919.9    299.40196   -49.001734    143.58859    142.64016    142.66142    49.001734   0.57665068 
    3120    2921584.5    299.85233   -48.731242    143.59571    142.66034     142.6178    48.731242   0.57672891 
    3140    2921325.6    299.65163     -151.308    143.60284    142.64582     142.6126      151.308   0.57680714 
    3160    2922126.1    300.02071     -304.875    143.60996    142.69088    142.59955      304.875   0.57688536 
    3180    2922857.5    299.43684   -173.74516    143.61709    142.72493    142.59415    173.74516   0.57696359 
    3200    2922087.5    299.76759   -125.11035    143.62421    142.69879    142.57562    125.11035   0.57704181 
    3220    2922423.2    299.54206   -67.227956    143.63133    142.70909    142.57464    67.227956   0.57712004 
    3240    2922313.8    298.86353   -49.486519    143.63846    142.71099    142.56033    49.486519   0.57719827 
    3260    2921701.6    299.72071   -47.801937    143.64558    142.70661    142.52777    47.801937   0.57727649 
    3280    2921329.6    299.76256   -149.33613    143.65271    142.71016    142.49902    149.33613   0.57735472 
    3300    2922144.8    299.80614   -175.30526    143.65983    142.73124    142.51066    175.30526   0.57743295 
    3320    2922525.7    299.52586   -127.32234    143.66696    142.75285    142.50059    127.32234   0.57751117 
    3340    2922670.2    300.14429   -136.56256    143.67408    142.74382    142.50958    136.56256    0.5775894 
    3360    2922037.1    300.14266   -1.4022192     143.6812    142.72414    142.49129    1.4022192   0.57766762 
    3380    2922108.1    299.49328    27.773826    143.68833    142.73384    142.47801   -27.773826   0.57774585 
    3400    2923066.1    299.79593    46.025485    143.69545    142.71249    142.53898   -46.025485   0.57782408 
    3420    2922312.1    300.04736   -48.443588    143.70258    142.68112    142.52647    48.443588    0.5779023 
    3440    2922944.5    300.18243   -214.90265     143.7097    142.71608    142.51533    214.90265   0.57798053 
    3460    2922800.3    300.61028   -245.93805    143.71682    142.72599    142.49134    245.93805   0.57805876 
    3480    2921099.2    300.77631   -149.62774    143.72395    142.64238    142.48482    149.62774   0.57813698 
    3500    2921670.2     299.8369   -165.40934    143.73107    142.64259    142.50539    165.40934   0.57821521 
    3520    2922002.1    300.61248   -115.03172     143.7382    142.64494    142.51218    115.03172   0.57829343 
    3540    2921433.5    300.39085    -46.58523    143.74532    142.62317    142.49913     46.58523   0.57837166 
    3560      2922209    300.76817   -10.042555    143.75245    142.62752    142.52554    10.042555   0.57844989 
    3580    2921438.6    300.66648    56.386728    143.75957    142.58503    142.52336   -56.386728   0.57852811 
    3600    2922036.1    300.42092   -20.201165    143.76669    142.56888    142.56159    20.201165   0.57860634 
    3620    2921398.2    300.13296   -56.513034    143.77382    142.55335    142.53894    56.513034   0.57868457 
    3640    2921496.7    300.23381    74.298461    143.78094     142.5453    142.54473   -74.298461   0.57876279 
    3660    2922497.4    300.45234   -14.271407    143.78807    142.57081    142.56098    14.271407   0.57884102 
    3680    2923594.9     300.1917    89.243334    143.79519    142.59685    142.58141   -89.243334   0.57891924 
    3700    2922929.2    300.18948    62.178799    143.80232    142.57051    142.56822   -62.178799   0.57899747 
    3720    2922427.2     300.1623    253.77802    143.80944    142.57804    142.52914   -253.77802    0.5790757 
    3740    2924090.8    299.51106   -15.167889    143.81656    142.64038    142.54089    15.167889   0.57915392 
    3760    2923895.9    299.49807    40.107812    143.82369    142.68349    142.48126   -40.107812   0.57923215 
    3780    2924585.8    299.32675   -10.854038    143.83081    142.67912    142.51219    10.854038   0.57931038 
    3800    2924328.5    299.44939   -30.309032    143.83794    142.68179    142.48993    30.309032    0.5793886 
    3820    2924398.3    299.94314    8.1353756    143.84506    142.70481    142.46329   -8.1353756   0.57946683 
    3840    2923121.1    299.49297    240.87618    143.85219    142.71424    142.38461   -240.87618   0.57954506 
    3860    2922795.6    299.41156    239.85572    143.85931    142.66391    142.41192   -239.85572   0.57962328 
    3880      2923040    299.74425    217.59279    143.86643    142.67211     142.4086   -217.59279   0.57970151 
    3900    2923915.3    300.00543    83.256897    143.87356    142.71255    142.40382   -83.256897   0.57977973 
    3920      2924171    299.40643   -47.490162    143.88068     142.7281     142.3937    47.490162   0.57985796 
    3940    2923237.8    300.07132    21.774717    143.88781    142.71674    142.35255   -21.774717   0.57993619 
    3960    2923965.8    299.88074   -107.76601    143.89493    142.72609    142.37162    107.76601   0.58001441 
    3980    2924344.8    299.88297   -242.47976    143.90205    142.71151    142.39757    242.47976   0.58009264 
    4000    2923940.9    300.03018    28.935916    143.90918    142.67922    142.40308   -28.935916   0.58017087 
    4020    2923543.9    300.58343    130.66281     143.9163    142.71389     142.3421   -130.66281   0.58024909 
    4040    2924777.1    300.33768    146.53814    143.92343    142.75338    142.35571   -146.53814   0.58032732 
    4060    2924986.1    300.83832    129.81054    143.93055    142.73942    142.37275   -129.81054   0.58040554 
    4080      2926070     300.2985    16.103765    143.93768    142.76045    142.39748   -16.103765   0.58048377 
    4100    2925817.4    300.36994    11.145934     143.9448    142.74856       142.39   -11.145934     0.580562 
    4120    2926735.9    300.18404   -89.684678    143.95192    142.72163    142.45452    89.684678   0.58064022 
    4140    2927621.3    300.73605   -94.360601    143.95905     142.7386    142.47364    94.360601   0.58071845 
    4160    2927112.4    300.80745   -25.161689    143.96617    142.72735    142.45304    25.161689   0.58079668 
    4180    2927451.9    300.65792     18.43251     143.9733    142.72187    142.46798    -18.43251    0.5808749 
    4200    2926737.4    299.42735    30.442669    143.98042    142.67591    142.47205   -30.442669   0.58095313 
    4220    2927204.7    300.06226    93.242462    143.98755    142.70251    142.46119   -93.242462   0.58103135 
    4240    2927815.6     299.5105    11.640324    143.99467    142.70856    142.47783   -11.640324   0.58110958 
    4260    2928530.4    299.44231    -165.2498    144.00179    142.68764    142.52645     165.2498   0.58118781 
    4280    2928785.1    299.58028   -244.15863    144.00892    142.72256    142.49692    244.15863   0.58126603 
    4300    2929787.6    299.59917   -256.81262    144.01604     142.7487    142.51255    256.81262   0.58134426 
    4320    2929067.7     299.7216   -69.429703    144.02317    142.70698    142.51213    69.429703   0.58142249 
    4340    2928851.6    300.40265   -20.506354    144.03029    142.75044    142.45119    20.506354   0.58150071 
    4360    2929304.6    299.70023   -21.233425    144.03741    142.75142    142.46519    21.233425   0.58157894 
    4380    2930257.5    299.48258   -53.419383    144.04454    142.76273     142.4932    53.419383   0.58165716 
    4400    2930256.8    299.38599   -57.542881    144.05166    142.78421    142.46469    57.542881   0.58173539 
    4420    2929776.4    299.29472   -108.44011    144.05879    142.72775    142.49063    108.44011   0.58181362 
    4440      2930646    299.73358   -73.107259    144.06591    142.72786    142.52576    73.107259   0.58189184 
    4460    2930555.2    299.74833   -79.330734    144.07304     142.7187    142.52345    79.330734   0.58197007 
    4480    2930673.6    299.52483   -120.69291    144.08016    142.72713    142.51374    120.69291    0.5820483 
    4500    2930147.3    299.54472   -19.397079    144.08728     142.7017     142.5065    19.397079   0.58212652 
    4520    2930510.6    299.77556   -12.768047    144.09441    142.74937    142.46953    12.768047   0.58220475 
    4540    2930228.7    300.52097     32.88726    144.10153    142.72384    142.47426    -32.88726   0.58228297 
    4560    2929089.9    299.55309    76.403468    144.10866    142.68661      142.449   -76.403468    0.5823612 
    4580    2928562.3    300.89184     75.62349    144.11578    142.68193    142.42097    -75.62349   0.58243943 
    4600    2928577.2    300.16669    56.472221    144.12291    142.69802     142.3986   -56.472221   0.58251765 
    4620    2927905.3    301.30436    30.383649    144.13003    142.67937     142.3775   -30.383649   0.58259588 
    4640    2928643.3    300.75089   -202.34944    144.13715    142.70554    142.38024    202.34944   0.58267411 
    4660    2928147.6    301.08804   -213.52912    144.14428    142.63237    142.42212    213.52912   0.58275233 
    4680    2928449.5    300.38015   -45.615715     144.1514    142.63729    142.42486    45.615715   0.58283056 
    4700    2928454.8    300.29953   -101.96682    144.15853    142.64367    142.41171    101.96682   0.58290879 
    4720    2927935.3    300.33865    22.482384    144.16565    142.61541    142.40763   -22.482384   0.58298701 
    4740    2928575.6    300.23119   -7.2360338    144.17277    142.62905     142.4181    7.2360338   0.58306524 
    4760    2927961.7    299.87145    110.01393     144.1799    142.58463    142.42557   -110.01393   0.58314346 
    4780    2928505.6    300.31468    15.927226    144.18702    142.61735    142.41231   -15.927226   0.58322169 
    4800    2928394.9    299.80547    65.179202    144.19415    142.61313     142.4041   -65.179202   0.58329992 
    4820    2928431.3    300.18998   -52.967883    144.20127    142.61077    142.40119    52.967883   0.58337814 
    4840    2927794.1     300.3729   -13.394036     144.2084    142.54914    142.42472    13.394036   0.58345637 
    4860    2928648.4     299.9444   -154.90707    144.21552    142.57978    142.42863    154.90707    0.5835346 
    4880    2928900.2    299.58554   -225.21617    144.22264    142.57465    142.43896    225.21617   0.58361282 
    4900    2928547.9    299.87768   -238.45554    144.22977    142.56287    142.42657    238.45554   0.58369105 
    4920    2927517.8    299.98617   -251.32503    144.23689    142.53369    142.39858    251.32503   0.58376927 
    4940    2927938.2    299.45753   -160.41815    144.24402    142.53882    142.40686    160.41815    0.5838475 
    4960    2927654.4    299.84698   -51.683054    144.25114     142.5537    142.37117    51.683054   0.58392573 
    4980    2926200.8    300.03245   -171.92323    144.25827    142.51816    142.32894    171.92323   0.58400395 
    5000    2927304.4    299.15483    -207.9672    144.26539    142.49049    142.40323     207.9672   0.58408218 
    5020    2927651.7    300.03651   -254.76242    144.27251      142.446    142.45758    254.76242   0.58416041 
    5040    2927126.9    299.96665   -185.04589    144.27964    142.43821    142.43279    185.04589   0.58423863 
    5060    2926893.5    299.59036   -152.85249    144.28676     142.3847    142.46793    152.85249   0.58431686 
    5080    2927716.3    300.14109   -50.859414    144.29389    142.41156    142.47407    50.859414   0.58439508 
    5100    2928529.7    300.29526   -141.39017    144.30101    142.42892    142.48924    141.39017   0.58447331 
    5120    2927496.9    299.93835   -58.655408    144.30813    142.40971    142.45117    58.655408   0.58455154 
    5140    2926405.7    300.35826    8.7868011    144.31526    142.43243    142.36833   -8.7868011   0.58462976 
    5160    2926075.8    300.26866    95.075346    144.32238    142.40801    142.36967   -95.075346   0.58470799 
    5180    2926312.5    300.34493     17.36182    144.32951    142.37657     142.4056    -17.36182   0.58478622 
    5200    2928007.9    300.31307   -201.55592    144.33663    142.38975    142.46787    201.55592   0.58486444 
    5220    2927654.8     299.5809   -54.639104    144.34376    142.37966    142.45376    54.639104   0.58494267 
    5240    2926708.7    300.80828   -29.866815    144.35088    142.37151    142.40885    29.866815   0.58502089 
    5260    2927884.4    300.87077   -154.22184      144.358    142.37858    142.45195    154.22184   0.58509912 
    5280    2928052.4    300.54267   -83.057505    144.36513    142.38707     142.4446    83.057505   0.58517735 
    5300    2926999.3    299.70829    114.88918    144.37225    142.37436    142.39906   -114.88918   0.58525557 
    5320    2926342.4    300.71042    136.94918    144.37938    142.39205    142.34239   -136.94918    0.5853338 
    5340    2927209.4     301.0469    199.73155     144.3865    142.39894    142.37065   -199.73155   0.58541203 
    5360    2928006.1    299.89163    69.556367    144.39363    142.38721    142.41409   -69.556367   0.58549025 
    5380    2927666.1    299.58834    11.604729    144.40075    142.38168    142.39606   -11.604729   0.58556848 
    5400    2927327.8    300.05319    38.311761    144.40787    142.35548    142.39878   -38.311761    0.5856467 
    5420    2928947.9    300.67544    8.2763685      144.415    142.36295    142.46309   -8.2763685   0.58572493 
    5440    2927666.3    300.65982    117.95894    144.42212    142.35816    142.39852   -117.95894   0.58580316 
    5460    2926726.4    299.74408    78.163463    144.42925    142.30988    142.39408   -78.163463   0.58588138 
    5480    2927089.9    299.51525    103.15965    144.43637     142.3079    142.40672   -103.15965   0.58595961 
    5500    2926276.1     299.6074    8.8931752     144.4435    142.34304    142.32496   -8.8931752   0.58603784 
    5520    2926011.4    299.93392   -185.84116    144.45062    142.31036    142.33774    185.84116   0.58611606 
    5540    2925469.5     299.8294   -78.029163    144.45774    142.30433     142.3104    78.029163   0.58619429 
    5560    2925563.8    299.22898   -65.578158    144.46487    142.32931      142.283    65.578158   0.58627252 
    5580    2925544.5    300.08571   -227.09949    144.47199    142.29434       142.31    227.09949   0.58635074 
    5600    2924703.5    300.04331   -112.44935    144.47912    142.24774    142.30869    112.44935   0.58642897 
    5620    2923671.2    300.24947    20.999746    144.48624     142.2616    142.23758   -20.999746   0.58650719 
    5640    2923792.2    300.62788   -167.00712    144.49336    142.28666     142.2114    167.00712   0.58658542 
    5660    2923347.6    300.35003   -164.89043    144.50049    142.26651     142.2029    164.89043   0.58666365 
    5680    2924233.5    299.73869   -86.794623    144.50761     142.2703    142.23519    86.794623   0.58674187 
    5700    2923817.9    299.98577   -116.72532    144.51474    142.26876    142.20951    116.72532    0.5868201 
    5720    2923296.7     299.6494   -175.04945    144.52186    142.24025    142.20564    175.04945   0.58689833 
    5740      2924437    299.51272   -175.30806    144.52899    142.30071    142.19366    175.30806   0.58697655 
    5760    2925105.6    300.26473    9.9841057    144.53611    142.33669    142.18321   -9.9841057   0.58705478 
    5780    2924957.6    299.63584   -3.3039287    144.54323    142.31144    142.19424    3.3039287     0.587133 
    5800    2924065.6    300.31259    238.86783    144.55036    142.29577    142.15953   -238.86783   0.58721123 
    5820      2926028    299.63135    92.944486    144.55748    142.34841    142.19531   -92.944486   0.58728946 
    5840    2927164.5    299.98665    43.842728    144.56461    142.37543    142.21654   -43.842728   0.58736768 
    5860    2927218.1    299.59732   -126.00709    144.57173    142.39218    142.19541    126.00709   0.58744591 
    5880    2928793.7    299.92609   -187.09743    144.57886    142.45964    142.19756    187.09743   0.58752414 
    5900    2929422.8    299.71799   -254.72994    144.58598    142.44318    142.23754    254.72994   0.58760236 
    5920    2929542.4    300.31844   -300.19433     144.5931    142.42545    142.25404    300.19433   0.58768059 
    5940    2930743.1    300.74095   -326.08325    144.60023    142.43989    142.29091    326.08325   0.58775881 
    5960    2930778.6    300.32048   -191.78664    144.60735    142.43423    142.29128    191.78664   0.58783704 
    5980    2931011.8    300.21054   -71.014874    144.61448    142.44759    142.28224    71.014874   0.58791527 
    6000    2931497.2    300.36659   -151.24747     144.6216    142.47594    142.27047    151.24747   0.58799349 
    6020    2932709.8    300.50568   -230.06906    144.62872    142.47974    142.31852    230.06906   0.58807172 
    6040    2933241.7    300.51508   -209.93212    144.63585    142.49681    142.32028    209.93212   0.58814995 
    6060      2931798    300.13455   -248.70302    144.64297    142.46955    142.27043    248.70302   0.58822817 
    6080    2932624.1    300.45364   -128.87667     144.6501    142.44959    142.32345    128.87667    0.5883064 
    6100    2935056.7    300.09234   -388.70005    144.65722    142.50992     142.3742    388.70005   0.58838462 
    6120    2934973.9    300.19345   -256.96172    144.66435    142.50815    142.36494    256.96172   0.58846285 
    6140    2934439.2    299.97379   -215.52173    144.67147    142.53099    142.30918    215.52173   0.58854108 
    6160    2934657.5    300.10519   -203.37228    144.67859    142.49964    142.34407    203.37228    0.5886193 
    6180    2934995.3    299.18426   -266.87966    144.68572    142.47354    142.37953    266.87966   0.58869753 
    6200    2933707.8    299.84484   -161.33273    144.69284    142.46273    142.32086    161.33273   0.58877576 
    6220    2933179.1      299.816   -251.58668    144.69997    142.46289    142.28805    251.58668   0.58885398 
    6240    2933484.1    300.08497   -246.01984    144.70709    142.44434    142.31436    246.01984   0.58893221 
    6260    2932380.6    300.21046   -261.06676    144.71422    142.43516    142.26299    261.06676   0.58901043 
    6280    2932603.5    299.64744   -219.27872    144.72134    142.46514    142.23687    219.27872   0.58908866 
    6300    2932238.3     299.8236   -252.60532    144.72846    142.46354    142.21375    252.60532   0.58916689 
    6320    2931329.3    299.40701   -93.613455    144.73559    142.44496    142.18121    93.613455   0.58924511 
    6340    2930783.2    299.56388   -111.38356    144.74271     142.4217    142.17093    111.38356   0.58932334 
    6360    2929287.9    299.52362   -31.403473    144.74984    142.35192    142.16106    31.403473   0.58940157 
    6380    2929690.8    299.37872   -144.72666    144.75696    142.30957    142.21592    144.72666   0.58947979 
    6400      2929716    299.30966   -77.310804    144.76408     142.3376    142.18214    77.310804   0.58955802 
    6420    2929048.6    299.75999   -102.01719    144.77121    142.31296    142.16737    102.01719   0.58963625 
    6440    2929432.1    300.11782   -189.63871    144.77833     142.3129    142.17905    189.63871   0.58971447 
    6460    2929668.5    299.94354   -294.65159    144.78546    142.35333    142.14314    294.65159    0.5897927 
    6480    2928583.6    299.61972   -332.13223    144.79258    142.31415    142.12262    332.13223   0.58987092 
    6500    2928904.1     300.5913   -493.62746    144.79971    142.29708    142.14824    493.62746   0.58994915 
    6520    2929190.2    299.54748   -486.49096    144.80683    142.30861    142.14361    486.49096   0.59002738 
    6540      2929096    299.83871   -443.13106    144.81395      142.299    142.14164    443.13106    0.5901056 
    6560    2928701.1     299.6386   -337.92093    144.82108    142.27343    142.14103    337.92093   0.59018383 
    6580    2929314.3    300.21794   -443.12283     144.8282    142.30427    142.13299    443.12283   0.59026206 
    6600    2929815.3     301.0344   -378.89594    144.83533    142.32348    142.13112    378.89594   0.59034028 
    6620    2929149.9     300.1936   -324.91559    144.84245    142.27992    142.13536    324.91559   0.59041851 
    6640    2929019.5    300.17467   -77.095785    144.84958     142.2646    142.13735    77.095785   0.59049673 
    6660    2928983.2    300.41033    61.607578     144.8567    142.22606    142.16711   -61.607578   0.59057496 
    6680    2929405.2    300.83677    42.019251    144.86382    142.23997    142.16669   -42.019251   0.59065319 
    6700    2929098.9    300.68851   -41.800513    144.87095    142.23973    142.14507    41.800513   0.59073141 
    6720    2928341.1    300.79807   -107.76323    144.87807    142.24216    142.09889    107.76323   0.59080964 
    6740    2928202.1    301.36844   -105.15351     144.8852     142.2017    142.12558    105.15351   0.59088787 
    6760    2928115.4    301.95062     -138.114    144.89232    142.21499     142.1011      138.114   0.59096609 
    6780    2928493.3    301.28907   -102.54334    144.89944    142.21509    142.11236    102.54334   0.59104432 
    6800    2929382.1    300.43532   -145.21724    144.90657    142.21026    142.15332    145.21724   0.59112254 
    6820    2928661.7    301.30099   -175.32235    144.91369    142.17988    142.14174    175.32235   0.59120077 
    6840    2929387.7    301.04355   -122.69083    144.92082    142.21777    142.13211    122.69083     0.591279 
    6860    2928800.8    300.73279   -52.736312    144.92794    142.20242    142.11199    52.736312   0.59135722 
    6880    2928002.5    300.17351    33.471083    144.93507    142.16699    142.10168   -33.471083   0.59143545 
    6900    2927869.5    301.04834   -2.6617799    144.94219    142.15995    142.09527    2.6617799   0.59151368 
    6920    2928292.4    300.28244   -205.52959    144.94931    142.17711    142.09166    205.52959    0.5915919 
    6940    2929696.7    300.12738   -175.64203    144.95644    142.19789    142.13204    175.64203   0.59167013 
    6960    2930709.2    300.10462   -375.77066    144.96356    142.18924    142.18283    375.77066   0.59174835 
    6980    2930822.2    299.96519    -294.7726    144.97069    142.18677    142.18379     294.7726   0.59182658 
    7000      2930651    300.27313    -115.9843    144.97781    142.16839    142.18688     115.9843   0.59190481 
    7020    2930755.3    300.20504    28.927021    144.98494    142.16671    142.18663   -28.927021   0.59198303 
    7040    2930972.5    300.04299    8.0967087    144.99206    142.19088    142.16601   -8.0967087   0.59206126 
    7060    2931320.1    300.04273    81.468324    144.99918    142.19744    142.16933   -81.468324   0.59213949 
    7080      2931798    299.95326   -28.664836    145.00631     142.1604    142.22256    28.664836   0.59221771 
    7100    2931594.1    299.85394    7.7703629    145.01343    142.16529    142.20079   -7.7703629   0.59229594 
    7120      2931695     300.2462   -110.80581    145.02056    142.15795    142.20605    110.80581   0.59237417 
    7140    2932091.6    299.90512   -158.60109    145.02768    142.13839    142.23787    158.60109   0.59245239 
    7160    2931762.1    300.07378   -295.44738    145.03481    142.18867    142.16461    295.44738   0.59253062 
    7180    2932191.5    300.26423   -261.46856    145.04193    142.21263    142.15449    261.46856   0.59260884 
    7200    2932833.9    298.93731   -331.20445    145.04905    142.20322    142.18807    331.20445   0.59268707 
    7220    2931655.9    299.87726   -165.79509    145.05618    142.16515    142.16203    165.79509    0.5927653 
    7240    2931749.6    299.81919   -159.95826     145.0633    142.13481    142.18994    159.95826   0.59284352 
    7260      2931377    300.00139   -43.942434    145.07043    142.11212    142.18759    43.942434   0.59292175 
    7280      2930907    300.07465   -148.53005    145.07755    142.14193    142.12799    148.53005   0.59299998 
    7300      2931210    300.51218   -213.99526    145.08467     142.1712    142.10644    213.99526    0.5930782 
    7320    2931178.2    300.68107   -238.95996     145.0918    142.11483    142.15428    238.95996   0.59315643 
    7340    2931569.3    299.91107   -216.47757    145.09892    142.14763    142.13347    216.47757   0.59323465 
    7360    2930789.7    300.58498   -228.18335    145.10605    142.10898    142.12734    228.18335   0.59331288 
    7380    2930544.2    299.31555   -281.20461    145.11317    142.10635    142.11109    281.20461   0.59339111 
    7400      2931426    300.63505   -267.47999     145.1203    142.12896    142.12425    267.47999   0.59346933 
    7420    2930999.1    301.23509   -230.88998    145.12742    142.12098    142.10456    230.88998   0.59354756 
    7440    2931132.5    300.90443   -172.98592    145.13454    142.15324     142.0718    172.98592   0.59362579 
    7460      2931486    301.09026   -81.352068    145.14167    142.16961    142.06561    81.352068   0.59370401 
    7480    2932378.6    301.03141   -172.07248    145.14879    142.17773    142.09377    172.07248   0.59378224 
    7500    2933157.8    300.43783   -246.17096    145.15592    142.18703    142.11526    246.17096   0.59386046 
    7520    2933035.9    300.27569   -172.72533    145.16304    142.17688    142.11252    172.72533   0.59393869 
    7540    2933425.8    299.85181   -103.32405    145.17017     142.1555    142.14582    103.32405   0.59401692 
    7560    2933929.9    300.45428   -161.07747    145.17729    142.16705    142.15172    161.07747   0.59409514 
    7580    2933935.6    300.24798   -184.65407    145.18441    142.16787    142.14419    184.65407   0.59417337 
    7600    2934056.9    300.20893    -43.32353    145.19154    142.15423    142.15674     43.32353    0.5942516 
    7620    2934311.5    299.74338    28.561258    145.19866    142.13913     142.1772   -28.561258   0.59432982 
    7640    2934968.8    300.14712    67.438369    145.20579    142.16322    142.17797   -67.438369   0.59440805 
    7660    2935194.1    300.10633    53.870428    145.21291    142.15125    142.19388   -53.870428   0.59448627 
    7680    2935493.6    299.74695    128.55264    145.22003    142.13252    142.22015   -128.55264    0.5945645 
    7700      2936134    299.94579   -101.78512    145.22716    142.14093    142.23578    101.78512   0.59464273 
    7720    2936185.4    299.18709   -162.97186    145.23428    142.12735    142.24489    162.97186   0.59472095 
    7740    2935387.1    299.60278   -229.20233    145.24141    142.11689    142.20971    229.20233   0.59479918 
    7760    2935714.3    299.97235   -150.24671    145.24853    142.10795    142.22753    150.24671   0.59487741 
    7780    2936177.2    299.34762   -278.11466    145.25566    142.09656    142.25438    278.11466   0.59495563 
    7800    2936292.8    299.38149   -195.05407    145.26278    142.09688    142.25268    195.05407   0.59503386 
    7820    2935975.3    300.09355   -124.31867     145.2699    142.10093    142.22628    124.31867   0.59511208 
    7840    2935423.2    300.47101   -27.146918    145.27703    142.08622    142.20728    27.146918   0.59519031 
    7860    2934988.7    299.73496    45.489091    145.28415    142.06673    142.19876   -45.489091   0.59526854 
    7880    2934893.4    300.62095    174.89029    145.29128    142.03273    142.22121   -174.89029   0.59534676 
    7900    2935999.4    300.20881    115.04453     145.2984    142.03751    142.26304   -115.04453   0.59542499 
    7920    2935440.4     300.1392    88.329345    145.30553     142.0189    142.24761   -88.329345   0.59550322 
    7940      2935340    299.65465    49.124224    145.31265    142.02132    142.23335   -49.124224   0.59558144 
    7960    2934999.2    299.81419    11.007963    145.31977    142.03067     142.2005   -11.007963   0.59565967 
    7980    2934594.5    301.20755    -23.96933     145.3269    142.05337    142.15121     23.96933    0.5957379 
    8000    2934495.2    300.74221   -39.015329    145.33402    142.05737    142.13543    39.015329   0.59581612 
    8020    2934969.1    300.02119   -46.835174    145.34115    142.04156    142.16723    46.835174   0.59589435 
    8040    2935203.2    301.01791    49.739296    145.34827    142.04256    142.17061   -49.739296   0.59597257 
    8060    2934623.4    300.75673    190.08942    145.35539    142.04685    142.13126   -190.08942    0.5960508 
    8080    2934526.5    300.69706     174.4653    145.36252    142.07789    142.08856    -174.4653   0.59612903 
    8100    2933835.1    300.98118    276.01136    145.36964    142.06351     142.0625   -276.01136   0.59620725 
    8120    2934067.3     301.3779    299.82492    145.37677    142.06829    142.06199   -299.82492   0.59628548 
    8140    2934763.6    301.37673    110.78345    145.38389    142.05897    142.09807   -110.78345   0.59636371 
    8160    2935116.7    300.62128   -89.239077    145.39102    142.08539    142.08177    89.239077   0.59644193 
    8180    2935713.7    300.19187   -248.25828    145.39814    142.09516    142.09394    248.25828   0.59652016 
    8200    2935493.9    299.73517   -258.07473    145.40526    142.04201     142.1295    258.07473   0.59659838 
    8220    2935664.7    300.92293   -339.13121    145.41239    142.03677    142.13606    339.13121   0.59667661 
    8240    2936277.4    300.22523   -253.29093    145.41951    142.06465    142.13086    253.29093   0.59675484 
    8260    2935652.5    300.16446   -1.4137471    145.42664    142.08818    142.07011    1.4137471   0.59683306 
    8280    2935063.7     300.6926    73.778793    145.43376    142.04693    142.07591   -73.778793   0.59691129 
    8300    2934971.2    300.92599    197.75644    145.44089    142.07872    142.03269   -197.75644   0.59698952 
    8320    2934961.5    299.55466    243.80412    145.44801    142.07292    142.03106   -243.80412   0.59706774 
    8340    2935054.7    299.73481    67.737778    145.45513    142.06983     142.0317   -67.737778   0.59714597 
    8360      2935441    299.63202   -95.007064    145.46226    142.07912    142.03414    95.007064   0.59722419 
    8380    2934904.8    299.65439    -83.10355    145.46938    142.07997     142.0004     83.10355   0.59730242 
    8400    2935058.6    299.98295   -193.76081    145.47651    142.07009    142.01076    193.76081   0.59738065 
    8420    2936104.4     299.6881   -361.87662    145.48363    142.12676    141.99776    361.87662   0.59745887 
    8440    2935201.7    299.71195   -232.81989    145.49075    142.14757    141.92638    232.81989    0.5975371 
    8460    2934206.1    299.92074   -191.31421    145.49788    142.10341    141.91537    191.31421   0.59761533 
    8480    2933788.6    299.55965   -248.66442      145.505    142.10825    141.88341    248.66442   0.59769355 
    8500    2934819.9    299.08865   -281.37226    145.51213    142.13461    141.90001    281.37226   0.59777178 
    8520      2935236    299.69591   -362.97799    145.51925    142.11165    141.93611    362.97799      0.59785 
    8540    2934043.5    300.29803    -204.8776    145.52638    142.08447    141.89864     204.8776   0.59792823 
    8560    2934133.5    299.99082    -81.85376     145.5335    142.12223    141.85834     81.85376   0.59800646 
    8580    2935039.9    300.34208   -125.60956    145.54062    142.12816     141.8893    125.60956   0.59808468 
    8600    2934162.6    300.49894    -154.2264    145.54775     142.0914    141.87664     154.2264   0.59816291 
    8620    2933350.8     300.8616   -139.26827    145.55487    142.07289    141.84892    139.26827   0.59824114 
    8640      2934328    300.00814   -260.52366      145.562    142.09782    141.86434    260.52366   0.59831936 
    8660    2933820.4    300.69672   -198.43403    145.56912    142.06545    141.86517    198.43403   0.59839759 
    8680    2933156.3    300.30666   -193.48729    145.57625    142.06648    141.82509    193.48729   0.59847581 
    8700      2934232    299.50648   -168.41498    145.58337    142.06401    141.87263    168.41498   0.59855404 
    8720    2935121.5    300.14068   -250.52808    145.59049    142.05896    141.91374    250.52808   0.59863227 
    8740      2934778    300.87975   -234.88441    145.59762    142.04981    141.89932    234.88441   0.59871049 
    8760      2934210    300.81907   -98.261759    145.60474    142.01582    141.89888    98.261759   0.59878872 
    8780      2935278    300.72478   -68.007002    145.61187     142.0183    141.94109    68.007002   0.59886695 
    8800    2935847.9    300.51806   -221.70095    145.61899    142.01272    141.96729    221.70095   0.59894517 
    8820    2935707.2    300.08698   -344.30135    145.62612    141.99466    141.97159    344.30135    0.5990234 
    8840    2935549.4    300.32481   -299.45938    145.63324    141.95976    141.99191    299.45938   0.59910163 
    8860    2936252.2     299.4536   -213.64552    145.64036    141.99663    141.98209    213.64552   0.59917985 
    8880    2937162.3     300.3104   -79.418945    145.64749    142.00097    142.01481    79.418945   0.59925808 
    8900    2936345.1    300.45983    7.0751136    145.65461    141.96172     142.0076   -7.0751136    0.5993363 
    8920    2937202.7    300.20852    23.201814    145.66174    141.98391    142.01994   -23.201814   0.59941453 
    8940    2937776.1    299.59038   -60.855058    145.66886    142.03163      141.993    60.855058   0.59949276 
    8960    2937648.8     299.8815   -151.82797    145.67598    142.05272    141.95881    151.82797   0.59957098 
    8980    2939089.4    300.15618   -240.33635    145.68311    142.11255    141.96169    240.33635   0.59964921 
    9000    2938984.8    299.42561   -286.41762    145.69023    142.08548    141.97674    286.41762   0.59972744 
    9020    2938872.8    300.64705    -427.1445    145.69736    142.07363    141.97623     427.1445   0.59980566 
    9040    2940177.9    300.08048   -311.10651    145.70448    142.08857     142.0174    311.10651   0.59988389 
    9060    2940650.7    299.93642   -346.81553    145.71161    142.10692    142.01495    346.81553   0.59996211 
    9080    2940987.3    299.45366   -216.25587    145.71873     142.1504    141.98082    216.25587   0.60004034 
    9100    2940292.5    299.77991   -177.30878    145.72585    142.17041    141.92036    177.30878   0.60011857 
    9120    2940211.5    300.10124   -59.002032    145.73298    142.14221    141.93767    59.002032   0.60019679 
    9140    2940672.8    299.90082   -80.308367     145.7401    142.14941    141.94581    80.308367   0.60027502 
    9160    2940083.4    299.66636    -181.2894    145.74723    142.14276    141.91706     181.2894   0.60035325 
    9180      2940240    299.65514   -214.56959    145.75435    142.08407     141.9763    214.56959   0.60043147 
    9200    2941159.5    299.68525   -253.12379    145.76148    142.06604    142.03178    253.12379    0.6005097 
    9220    2940500.7    299.82852   -290.86834     145.7686     142.0623    141.99677    290.86834   0.60058792 
    9240    2940267.5    300.14304   -122.18693    145.77572    142.08149     141.9594    122.18693   0.60066615 
    9260    2939072.6    300.37506    68.572142    145.78285    142.03258    141.94363   -68.572142   0.60074438 
    9280    2938884.9    299.88854    199.39986    145.78997    142.02529    141.93491   -199.39986    0.6008226 
    9300    2938331.3     300.6781    219.71067     145.7971    142.04011    141.88643   -219.71067   0.60090083 
    9320    2938768.1    299.41474    101.90598    145.80422    142.03293    141.90776   -101.90598   0.60097906 
    9340    2940434.5    299.84269   -122.12331    145.81134    142.06247    141.95178    122.12331   0.60105728 
    9360    2938739.4    299.24223   -112.65479    145.81847    142.05839    141.86709    112.65479   0.60113551 
    9380    2939397.7    300.78091   -256.13151    145.82559    142.04695    141.90336    256.13151   0.60121373 
    9400    2940061.8    300.58598   -306.27088    145.83272    142.04813    141.92731    306.27088   0.60129196 
    9420      2939850    300.48032   -277.27656    145.83984    142.06123    141.89706    277.27656   0.60137019 
    9440    2939307.5    300.26276   -185.47936    145.84697    142.02456    141.90058    185.47936   0.60144841 
    9460    2938276.4    299.97658   -232.88306    145.85409    141.97155    141.89683    232.88306   0.60152664 
    9480    2938771.4    299.93302     -128.352    145.86121    141.97817    141.90719      128.352   0.60160487 
    9500    2938334.5    299.85661   -113.99206    145.86834     141.9638    141.89352    113.99206   0.60168309 
    9520    2937657.4    300.43774    12.693764    145.87546    141.91866    141.89902   -12.693764   0.60176132 
    9540    2938349.5    300.67167     37.72968    145.88259    141.93217    141.91201    -37.72968   0.60183954 
    9560    2938107.9    300.73496   -50.417766    145.88971    141.92242    141.90316    50.417766   0.60191777 
    9580    2937884.9     301.1891   -28.153258    145.89684    141.88827    141.91961    28.153258     0.601996 
    9600    2937564.3    300.11441   -104.42849    145.90396    141.89679    141.88867    104.42849   0.60207422 
    9620    2937516.2    300.52281   -223.37658    145.91108    141.90413    141.87209    223.37658   0.60215245 
    9640    2937579.1    299.73699   -376.53572    145.91821    141.85266    141.91967    376.53572   0.60223068 
    9660    2939219.6    300.21823   -543.01605    145.92533    141.90617    141.93845    543.01605    0.6023089 
    9680      2939846     300.1701   -539.26932    145.93246    141.93477    141.93316    539.26932   0.60238713 
    9700    2938265.7    299.46363   -338.96673    145.93958    141.88015    141.90455    338.96673   0.60246536 
    9720      2937977    300.32648   -194.79134     145.9467    141.86682    141.89702    194.79134   0.60254358 
    9740    2938679.1    299.53973   -132.43479    145.95383    141.89399    141.89682    132.43479   0.60262181 
    9760    2938587.3    299.19855    43.333553    145.96095    141.89108    141.88837   -43.333553   0.60270003 
    9780    2937532.8    299.11888    40.881282    145.96808     141.8366    141.88501   -40.881282   0.60277826 
    9800    2938397.4    298.84473    11.656219     145.9752    141.86168    141.89476   -11.656219   0.60285649 
    9820    2938922.2    299.72858   -37.306552    145.98233    141.90503    141.86981    37.306552   0.60293471 
    9840    2937753.7    300.01763   -107.63397    145.98945    141.89342     141.8181    107.63397   0.60301294 
    9860    2937242.3    299.07353   -72.793086    145.99657    141.87599    141.80391    72.793086   0.60309117 
    9880    2936798.5    299.38902   -10.347531     146.0037    141.86578    141.78577    10.347531   0.60316939 
    9900    2937726.2    299.45334   -117.53029    146.01082    141.88415    141.80527    117.53029   0.60324762 
    9920    2938150.5     300.3813   -108.64596    146.01795    141.87293    141.83005    108.64596   0.60332584 
    9940    2937714.4     300.0353   -177.25828    146.02507    141.87957    141.79544    177.25828   0.60340407 
    9960    2937064.4    299.82535   -75.774873     146.0322    141.86523    141.77148    75.774873    0.6034823 
    9980    2937082.6    299.85228   -243.37079    146.03932     141.8424    141.78827    243.37079   0.60356052 
   10000    2938058.8    300.38043   -300.74009    146.04644    141.87687    141.79402    300.74009   0.60363875 
   10020    2937723.1    300.11697   -398.20065    146.05357    141.87539    141.77238    398.20065   0.60371698 
   10040    2937154.4     300.0155   -376.39217    146.06069    141.84673    141.76666    376.39217    0.6037952 
   10060    2937750.6    300.90685   -408.92229    146.06782    141.84386    141.79139    408.92229   0.60387343 
   10080    2938329.6      300.551   -405.94913    146.07494    141.85273    141.80355    405.94913   0.60395165 
   10100    2937921.2    300.97726   -308.87726    146.08206    141.84093    141.78872    308.87726   0.60402988 
   10120    2936782.6    300.39479   -162.17758    146.08919    141.81467     141.7531    162.17758   0.60410811 
   10140    2937773.3    300.18494   -248.76123    146.09631     141.8378    141.77088    248.76123   0.60418633 
   10160      2938866    300.47432    -286.5589    146.10344    141.85425    141.80025     286.5589   0.60426456 
   10180      2937851       300.33   -226.30793    146.11056    141.80929    141.78931    226.30793   0.60434279 
   10200    2938800.3    300.30202   -97.016973    146.11769    141.84326    141.79423    97.016973   0.60442101 
   10220    2938722.2    300.18997   -276.11927    146.12481    141.82857    141.79824    276.11927   0.60449924 
   10240    2938680.2    299.87165   -184.80096    146.13193    141.83345    141.78442    184.80096   0.60457746 
   10260      2939548    299.95862   -277.97959    146.13906    141.87084      141.782    277.97959   0.60465569 
   10280    2938812.8     300.1314   -264.24761    146.14618     141.8388    141.77165    264.24761   0.60473392 
   10300    2939744.3    298.70256   -282.98078    146.15331    141.87961    141.76889    282.98078   0.60481214 
   10320      2940774    299.23184   -334.72688    146.16043    141.94045    141.75084    334.72688   0.60489037 
   10340    2941371.1    299.01126    -446.8113    146.16756    141.93904    141.77413     446.8113    0.6049686 
   10360    2941056.4    299.47137   -246.44104    146.17468    141.98686    141.70431    246.44104   0.60504682 
   10380    2941455.6     299.7904   -299.61807     146.1818    141.98137    141.72212    299.61807   0.60512505 
   10400    2942730.7    299.75092   -205.01389    146.18893    141.99723     141.7608    205.01389   0.60520328 
   10420    2942625.3    299.63748   -160.76058    146.19605    141.99935     141.7467    160.76058    0.6052815 
   10440    2941558.9    299.79314    -154.1842    146.20318    141.98112    141.70662     154.1842   0.60535973 
   10460    2942029.4     299.9379   -293.33486     146.2103    142.00215    141.70139    293.33486   0.60543795 
   10480    2943181.6    300.53806   -222.60853    146.21743    142.04427    141.70795    222.60853   0.60551618 
   10500    2942870.5    300.21653   -202.40049    146.22455    142.02952    141.70078    202.40049   0.60559441 
   10520    2942029.7    300.82339   -148.74302    146.23167    141.99479    141.68804    148.74302   0.60567263 
   10540    2941901.6    300.13851   -115.54483     146.2388    141.97733    141.69239    115.54483   0.60575086 
   10560    2943014.9    299.99152   -279.41749    146.24592    141.99804    141.71843    279.41749   0.60582909 
   10580      2943348    300.31959    -251.0333    146.25305    141.97877     141.7468     251.0333   0.60590731 
   10600    2941327.7    300.66142   -92.807496    146.26017    141.90905     141.7122    92.807496   0.60598554 
   10620    2940781.1    300.44841   -195.19947    146.26729    141.89394    141.69405    195.19947   0.60606376 
   10640    2941671.2    300.56678   -154.52626    146.27442    141.87197    141.75198    154.52626   0.60614199 
   10660    2941989.9    299.77976   -294.05688    146.28154    141.90317    141.72927    294.05688   0.60622022 
   10680      2941355    300.41869   -54.095545    146.28867    141.87977    141.71515    54.095545   0.60629844 
   10700    2939384.3    300.61708    174.00099    146.29579    141.82617    141.66683   -174.00099   0.60637667 
   10720    2940726.4     299.6653    173.05825    146.30292    141.85507    141.69574   -173.05825    0.6064549 
   10740    2941251.7     300.0279    152.46494    146.31004     141.8552    141.71402   -152.46494   0.60653312 
   10760    2939682.3    300.59691    208.45858    146.31716    141.80515    141.68149   -208.45858   0.60661135 
   10780    2940271.8    300.11817    63.380185    146.32429    141.79411    141.71404   -63.380185   0.60668957 
   10800    2940545.9     299.7773    76.819967    146.33141     141.7912    141.72326   -76.819967    0.6067678 
   10820    2941278.8    299.07029    -171.0226    146.33854    141.81786    141.72503     171.0226   0.60684603 
   10840    2941331.2    299.28562   -260.40112    146.34566    141.82715    141.71138    260.40112   0.60692425 
   10860    2940491.1    299.38118   -329.52389    146.35279    141.76166    141.72945    329.52389   0.60700248 
   10880    2941215.7    299.01882   -289.84071    146.35991    141.75653    141.76259    289.84071   0.60708071 
   10900    2940255.2    298.96508   -205.27934    146.36703    141.74308    141.72286    205.27934   0.60715893 
   10920    2939816.1    299.05032   -47.177634    146.37416    141.70649    141.73138    47.177634   0.60723716 
   10940    2940188.4    299.22457   -211.17473    146.38128    141.68694    141.76198    211.17473   0.60731538 
   10960    2940463.8    299.77094   -142.40241    146.38841    141.69264    141.76266    142.40241   0.60739361 
   10980    2940981.5    299.29931   -344.60517    146.39553    141.67536    141.79802    344.60517   0.60747184 
   11000    2940599.3    299.36835   -271.70099    146.40265    141.69944    141.74859    271.70099   0.60755006 
   11020    2940414.2    300.04047   -197.67555    146.40978    141.66679    141.76544    197.67555   0.60762829 
   11040    2941213.7    300.00603   -282.29993     146.4169    141.65567    141.80822    282.29993   0.60770652 
   11060    2940291.9     299.7486   -222.62858    146.42403    141.62725    141.78532    222.62858   0.60778474 
   11080    2940606.2    300.26735   -85.819263    146.43115    141.63095    141.78987    85.819263   0.60786297 
   11100    2939704.6    300.23423   -167.14834    146.43828    141.59019    141.78031    167.14834   0.60794119 
   11120    2940028.4     300.1235   -29.407921     146.4454     141.5976    141.78161    29.407921   0.60801942 
   11140    2940382.5    300.14062   -265.78074    146.45252    141.59662    141.79277    265.78074   0.60809765 
   11160      2940073    300.60401   -204.58684    146.45965    141.58174    141.78584    204.58684   0.60817587 
   11180      2939814    300.61734     -289.655    146.46677    141.58271    141.76549      289.655    0.6082541 
   11200    2938772.8    299.83935   -198.66882     146.4739    141.52108    141.77009    198.66882   0.60833233 
   11220      2938282    299.92355   -189.93971    146.48102    141.50082    141.75982    189.93971   0.60841055 
   11240      2938555    299.72984   -204.07275    146.48815    141.53453    141.73234    204.07275   0.60848878 
   11260    2938018.9    300.39804   -112.43687    146.49527    141.54669    141.68741    112.43687   0.60856701 
   11280      2937484    299.82621   -85.984973    146.50239    141.51031    141.69115    85.984973   0.60864523 
   11300    2938518.1    299.70205   -210.26367    146.50952    141.53008    141.71433    210.26367   0.60872346 
   11320    2938708.9    300.36629   -222.05237    146.51664    141.56347    141.68321    222.05237   0.60880168 
   11340    2938912.6    299.79564   -244.39383    146.52377     141.5641    141.68552    244.39383   0.60887991 
   11360    2938589.7    300.27261   -184.64554    146.53089    141.51836    141.70885    184.64554   0.60895814 
   11380    2938531.5    298.80581   -276.67992    146.53801    141.54024    141.67725    276.67992   0.60903636 
   11400    2939150.4    299.94071   -153.21989    146.54514    141.53199    141.70846    153.21989   0.60911459 
   11420      2939189    299.85146   -271.78186    146.55226    141.55943    141.67596    271.78186   0.60919282 
   11440    2939876.2    300.06927   -180.55196    146.55939    141.58307    141.67854    180.55196   0.60927104 
   11460    2940193.5    300.20557   -258.47572    146.56651    141.58388    141.68614    258.47572   0.60934927 
   11480    2939625.7    299.80234     -92.2935    146.57364    141.58372    141.65205      92.2935   0.60942749 
   11500    2939943.9    299.95596   -144.18061    146.58076     141.6466    141.59761    144.18061   0.60950572 
   11520      2940097    299.27235   -94.240871    146.58788    141.61973    141.62497    94.240871   0.60958395 
   11540    2941443.9    299.02201    -198.9009    146.59501    141.65807    141.64461     198.9009   0.60966217 
   11560    2941324.7    299.58891   -251.82757    146.60213    141.68751    141.60256    251.82757    0.6097404 
   11580    2940868.6    299.03032    -273.2632    146.60926    141.66969    141.59154     273.2632   0.60981863 
   11600    2941957.3    299.70998   -289.55848    146.61638    141.69177      141.615    289.55848   0.60989685 
   11620    2941475.9    299.33729   -212.46489    146.62351    141.66117    141.61552    212.46489   0.60997508 
   11640    2941881.4    299.46339    -209.3452    146.63063    141.65174     141.6376     209.3452    0.6100533 
   11660      2941889    298.87688   -176.77828    146.63775    141.63311    141.64971    176.77828   0.61013153 
   11680    2942693.1    299.42719   -154.57895    146.64488    141.65189    141.66276    154.57895   0.61020976 
   11700    2943557.8    299.67914   -308.23573      146.652    141.67456    141.67483    308.23573   0.61028798 
   11720      2943313    299.47895   -129.79875    146.65913    141.68225    141.64847    129.79875   0.61036621 
   11740    2944051.9     299.9509   -10.611977    146.66625    141.67867    141.68074    10.611977   0.61044444 
   11760    2944626.3     300.1438   -99.478145    146.67337    141.69967     141.6805    99.478145   0.61052266 
   11780    2944886.3    299.92561   -131.98463     146.6805    141.69527    141.69052    131.98463   0.61060089 
   11800    2946123.5    300.29273    -230.2295    146.68762    141.70976    141.72867     230.2295   0.61067911 
   11820    2946867.8    299.67864   -300.90386    146.69475    141.74189    141.72546    300.90386   0.61075734 
   11840    2946121.4    300.23575   -209.68789    146.70187    141.72904    141.69553    209.68789   0.61083557 
   11860    2946055.5    300.84499   -137.60715      146.709     141.7019    141.71261    137.60715   0.61091379 
   11880    2946557.5    299.58067   -138.57697    146.71612    141.72522    141.70655    138.57697   0.61099202 
   11900    2947207.9    300.26147   -304.33472    146.72324    141.74233    141.71385    304.33472   0.61107025 
   11920    2947105.7    300.17565   -276.24777    146.73037    141.68982    141.75456    276.24777   0.61114847 
   11940    2947290.1    300.12741   -212.41262    146.73749     141.7307    141.71566    212.41262    0.6112267 
   11960    2947425.5    300.58374   -74.501896    146.74462    141.77287    141.67314    74.501896   0.61130492 
   11980    2946937.8    299.82617   -76.850792    146.75174    141.75267    141.66301    76.850792   0.61138315 
   12000    2947495.2    300.04368   -166.84067    146.75887     141.8125    141.62315    166.84067   0.61146138 
   12020    2947786.8    300.62272   -190.58079    146.76599    141.83368    141.60913    190.58079    0.6115396 
   12040    2947104.7    299.70665   -213.80489    146.77311    141.80423     141.5989    213.80489   0.61161783 
   12060    2947325.2    299.62269   -224.35119    146.78024    141.79905    141.60779    224.35119   0.61169606 
   12080    2947991.9    299.74555   -245.96625    146.78736    141.81306    141.61896    245.96625   0.61177428 
   12100    2947193.6    299.96722   -87.917066    146.79449    141.81669    141.57011    87.917066   0.61185251 
   12120    2945867.2    299.17364    37.800234    146.80161    141.78046    141.53569   -37.800234   0.61193074 
   12140    2945595.2    299.35897    -67.27574    146.80874    141.76675    141.52944     67.27574   0.61200896 
   12160    2945976.6     299.0856    -43.13256    146.81586    141.78535    141.52233     43.13256   0.61208719 
   12180    2945298.4     299.2608   -139.72145    146.82298    141.79639    141.47186    139.72145   0.61216541 
   12200    2944335.4    299.83573   -140.64432    146.83011    141.76991    141.44516    140.64432   0.61224364 
   12220    2944630.7    298.93435   -267.07001    146.83723    141.81565    141.40686    267.07001   0.61232187 
   12240    2944404.2     299.3932   -236.14119    146.84436    141.81509    141.38968    236.14119   0.61240009 
   12260    2942563.6    299.81561   -3.0240219    146.85148    141.80014    141.30934    3.0240219   0.61247832 
   12280      2942036    299.64263    46.287271     146.8586    141.78927    141.28798   -46.287271   0.61255655 
   12300      2942611    299.63121   -114.91335    146.86573    141.79947    141.29857    114.91335   0.61263477 
   12320    2942843.3    299.81038   -159.62938    146.87285    141.81632    141.28609    159.62938     0.612713 
   12340    2943346.6    299.82123   -200.07214    146.87998     141.8461    141.27373    200.07214   0.61279122 
   12360    2943502.8    300.74361   -227.63546     146.8871     141.8335    141.28693    227.63546   0.61286945 
   12380      2943468    299.35608   -41.270083    146.89423    141.81515    141.29668    41.270083   0.61294768 
   12400    2943541.7    300.13257    65.010695    146.90135    141.78933     141.3191   -65.010695    0.6130259 
   12420    2943599.9     300.0061    43.863298    146.90847    141.75697     141.3473   -43.863298   0.61310413 
   12440    2943473.9    300.06941    110.64774     146.9156    141.78431    141.30713   -110.64774   0.61318236 
   12460    2943692.5     301.1293   -6.7344552    146.92272     141.7999    141.29525    6.7344552   0.61326058 
   12480    2944571.6    300.53864   -84.166467    146.92985    141.78943    141.34102    84.166467   0.61333881 
   12500    2945304.7    300.49081   -121.53889    146.93697    141.76334    141.39538    121.53889   0.61341703 
   12520    2945979.7     300.4969    -286.5305     146.9441    141.76766    141.41662     286.5305   0.61349526 
   12540    2946204.3    299.30761   -350.19955    146.95122    141.76415    141.42404    350.19955   0.61357349 
   12560    2946360.5    300.01214   -181.09822    146.95834    141.72571    141.46304    181.09822   0.61365171 
   12580      2946961    300.74911   -273.23954    146.96547    141.75814    141.45265    273.23954   0.61372994 
   12600    2947501.8    299.57066    -175.2558    146.97259    141.75028    141.47959     175.2558   0.61380817 
   12620    2947596.8    300.12104   -217.30012    146.97972    141.75849     141.4691    217.30012   0.61388639 
   12640    2948750.5    299.95074   -270.11358    146.98684    141.78722    141.48893    270.11358   0.61396462 
   12660    2948858.2    300.41829   -302.82175    146.99396    141.75562    141.51879    302.82175   0.61404284 
   12680    2948783.9    299.51717   -315.04251    147.00109    141.68322    141.58068    315.04251   0.61412107 
   12700    2949380.9    299.68887   -463.76278    147.00821    141.67572    141.60997    463.76278    0.6141993 
   12720    2949290.2    299.38098   -288.79095    147.01534    141.69158     141.5829    288.79095   0.61427752 
   12740    2949148.7    299.22125   -287.19547    147.02246    141.69739    141.56344    287.19547   0.61435575 
   12760    2949545.2    299.72543   -189.28519    147.02959    141.68992    141.58308    189.28519   0.61443398 
   12780    2949376.7    299.45312    -173.0978    147.03671    141.66831    141.58973     173.0978    0.6145122 
   12800    2948709.6    299.64235   -246.47298    147.04383    141.65799    141.56116    246.47298   0.61459043 
   12820    2949272.6    300.02387   -209.54397    147.05096    141.64953    141.58979    209.54397   0.61466865 
   12840    2948753.3    299.88823   -157.15918    147.05808    141.64937    141.55816    157.15918   0.61474688 
   12860    2948463.7    299.36176   -111.26004    147.06521      141.643    141.54376    111.26004   0.61482511 
   12880    2948955.5    299.95664   -186.65513    147.07233    141.65326    141.55026    186.65513   0.61490333 
   12900    2949570.5    300.21194     -312.542    147.07946    141.70698    141.51925      312.542   0.61498156 
   12920    2949079.5    300.56288   -185.40504    147.08658    141.70095    141.49486    185.40504   0.61505979 
   12940      2947835    299.97333   -365.79343     147.0937    141.66372    141.46547    365.79343   0.61513801 
   12960    2948429.8    300.90793    -315.0816    147.10083    141.66604    141.48485     315.0816   0.61521624 
   12980    2949063.3    300.24222   -301.14084    147.10795    141.64133    141.53307    301.14084   0.61529447 
   13000    2947651.1    301.19704    -131.1848    147.11508     141.5528    141.54692     131.1848   0.61537269 
   13020    2945898.1    300.83399   -22.292577     147.1222    141.50717    141.50151    22.292577   0.61545092 
[...]
  396760    4133647.3    300.00218   -96.496889    283.81455    121.60243    119.77233    96.496889    2.1163786 
  396780    4131800.3    299.76883     -142.829    283.82167    121.56246    119.75518      142.829    2.1164568 
  396800    4133116.1    299.40356   -233.77864     283.8288    121.56565    119.78716    233.77864     2.116535 
  396820    4134314.5    298.98528   -195.57376    283.83592    121.57567    119.80901    195.57376    2.1166132 
  396840    4131003.3    299.84419   -117.81861    283.84304    121.51673    119.76811    117.81861    2.1166915 
  396860    4130713.5     299.8341   -68.469564    283.85017    121.51768    119.75577    68.469564    2.1167697 
  396880    4130740.1    300.12632   -141.49987    283.85729    121.52414    119.74717    141.49987    2.1168479 
  396900    4130325.4    299.72413   -149.71098    283.86442    121.52277    119.73349    149.71098    2.1169261 
  396920    4130866.3    300.59148   -193.95012    283.87154    121.53028    119.73876    193.95012    2.1170044 
  396940    4131933.6    300.34263   -222.81652    283.87867    121.52803    119.76892    222.81652    2.1170826 
  396960    4129955.7    299.83326   -27.779975    283.88579    121.51893    119.71754    27.779975    2.1171608 
  396980    4129777.1    301.08902   -135.23656    283.89291    121.53228    119.69621    135.23656    2.1172391 
  397000    4130472.5    300.54761   -150.30481    283.90004     121.4889    119.75611    150.30481    2.1173173 
  397020    4129935.7    301.06126    -72.85848    283.90716    121.50352    119.72313     72.85848    2.1173955 
  397040    4129080.4    300.54642   -145.83694    283.91429    121.50418    119.69469    145.83694    2.1174737 
  397060    4128511.6    300.47337   -80.895895    283.92141    121.48246    119.69659    80.895895     2.117552 
  397080    4125967.4    300.68132   -62.871109    283.92854    121.47383    119.62832    62.871109    2.1176302 
  397100    4126407.3    300.63545   -135.49604    283.93566    121.46606    119.64573    135.49604    2.1177084 
  397120    4127459.1    300.26869   -312.31295    283.94278    121.46878    119.67055    312.31295    2.1177866 
  397140    4128087.6    300.43282   -271.13284    283.94991    121.49878    119.65622    271.13284    2.1178649 
  397160    4128214.1    300.74037   -234.30532    283.95703    121.49644    119.65918    234.30532    2.1179431 
  397180      4126455    299.85345   -88.472373    283.96416    121.45095    119.64999    88.472373    2.1180213 
  397200      4128189    299.58712   -72.632213    283.97128     121.4581    119.69022    72.632213    2.1180995 
  397220    4127485.7    300.44853   -91.102412     283.9784    121.45741    119.66751    91.102412    2.1181778 
  397240      4127357      299.869   -92.159047    283.98553    121.45007    119.66801    92.159047     2.118256 
  397260      4127192    300.00149   -159.81775    283.99265    121.44307    119.66712    159.81775    2.1183342 
  397280    4128985.6    299.67557   -243.66704    283.99978    121.44169    119.71748    243.66704    2.1184124 
  397300    4129277.5    299.86018   -202.76021     284.0069    121.44794    119.71678    202.76021    2.1184907 
  397320    4127874.1    300.12012    -129.5181    284.01403    121.45677    119.66438     129.5181    2.1185689 
  397340    4127955.5    300.63327   -29.960743    284.02115    121.48451    119.63642    29.960743    2.1186471 
  397360      4127497     299.9458    47.156243    284.02827    121.48305    119.62158   -47.156243    2.1187253 
  397380    4128816.2    300.41626    37.937758     284.0354    121.52101    119.61942   -37.937758    2.1188036 
  397400    4129234.8    300.43769   -32.073088    284.04252    121.49773    119.65147    32.073088    2.1188818 
  397420    4128571.7    299.66904    -74.90571    284.04965    121.45823    119.66816     74.90571      2.11896 
  397440      4127938    299.19523   -124.57906    284.05677    121.45308    119.65187    124.57906    2.1190383 
  397460    4128420.4    299.63024   -202.54873     284.0639    121.48508    119.63133    202.54873    2.1191165 
  397480      4128850    300.01691   -270.86247    284.07102    121.49376    119.63223    270.86247    2.1191947 
  397500    4129635.9    300.11192   -372.01475    284.07814    121.52299    119.62322    372.01475    2.1192729 
  397520    4129312.8    298.85924   -376.38618    284.08527    121.50497     119.6286    376.38618    2.1193512 
  397540    4130201.7    299.84726   -173.48836    284.09239    121.47899    119.67694    173.48836    2.1194294 
  397560    4129428.9    300.02616   -173.81306    284.09952    121.49568    119.63511    173.81306    2.1195076 
  397580    4130532.3    300.05895   -228.26125    284.10664     121.5231    119.63708    228.26125    2.1195858 
  397600    4131084.8    299.98296   -256.59259    284.11376    121.51291    119.66012    256.59259    2.1196641 
  397620    4131250.2    301.18219   -244.80311    284.12089    121.53761    119.63758    244.80311    2.1197423 
  397640    4131931.2    300.17913   -272.04081    284.12801    121.52737    119.66439    272.04081    2.1198205 
  397660    4131676.8    300.01849    -360.5193    284.13514    121.52814    119.65327     360.5193    2.1198987 
  397680      4132262    300.69137   -271.06842    284.14226    121.56313    119.63276    271.06842     2.119977 
  397700    4132165.9    300.39033    -236.8894    284.14939    121.50536    119.68386     236.8894    2.1200552 
  397720    4133451.4    300.24663   -287.86267    284.15651    121.52866    119.69514    287.86267    2.1201334 
  397740      4132556    300.61599   -194.85957    284.16363    121.54196    119.65312    194.85957    2.1202116 
  397760    4132587.5     300.1648   -156.67506    284.17076    121.51828    119.67435    156.67506    2.1202899 
  397780    4132460.8    299.38242   -145.59211    284.17788    121.51751    119.66843    145.59211    2.1203681 
  397800      4132166    300.48825   -154.00247    284.18501    121.49625    119.67784    154.00247    2.1204463 
  397820      4132090    299.88005    -168.1164    284.19213    121.52478    119.64453     168.1164    2.1205246 
  397840    4131039.1    300.28833   -81.474383    284.19926    121.53987    119.59627    81.474383    2.1206028 
  397860    4130714.5    299.72906   -188.43535    284.20638    121.56235    119.56175    188.43535     2.120681 
  397880    4131720.2     299.6138   -157.66264     284.2135    121.60295    119.54794    157.66264    2.1207592 
  397900    4131041.5     300.5948   -172.93821    284.22063    121.62759    119.50109    172.93821    2.1208375 
  397920    4130954.3    299.18564   -237.23944    284.22775    121.63685    119.48648    237.23944    2.1209157 
  397940    4131876.1    299.52137    -354.2063    284.23488    121.64789    119.49929     354.2063    2.1209939 
  397960    4131720.6    299.83238   -289.13751      284.242    121.64567    119.49398    289.13751    2.1210721 
  397980    4131617.6    299.68894   -260.41113    284.24913    121.66243    119.47155    260.41113    2.1211504 
  398000    4130204.6    299.82134   -260.11071    284.25625      121.659    119.43106    260.11071    2.1212286 
  398020    4130279.7    299.89473   -81.644964    284.26337    121.69143    119.39841    81.644964    2.1213068 
  398040    4129216.5    300.30947   -2.1337744     284.2705    121.67664     119.3792    2.1337744     2.121385 
  398060    4128543.5    300.28005    12.011386    284.27762    121.64663    119.38619   -12.011386    2.1214633 
  398080    4129054.5    299.89565    33.586236    284.28475    121.65401    119.39074   -33.586236    2.1215415 
  398100    4129023.4    300.38515   -114.85151    284.29187     121.6665    119.37458    114.85151    2.1216197 
  398120    4128287.3    299.76742   -82.697378    284.29899    121.66072    119.35599    82.697378    2.1216979 
  398140    4127390.9    300.87217   -117.45157    284.30612    121.65154    119.33608    117.45157    2.1217762 
  398160      4129117    300.22026   -168.38227    284.31324    121.61973    119.41423    168.38227    2.1218544 
  398180    4128538.4     300.3375   -257.32938    284.32037    121.64769    119.36706    257.32938    2.1219326 
  398200    4127279.1    300.67186   -152.24518    284.32749    121.64959    119.32579    152.24518    2.1220109 
  398220    4127343.5    301.28652   -116.30513    284.33462    121.60484    119.36858    116.30513    2.1220891 
  398240    4127021.8    300.50171   -103.36286    284.34174    121.59781    119.36318    103.36286    2.1221673 
  398260    4126245.3    300.53294   -96.298915    284.34886    121.60302    119.33262    96.298915    2.1222455 
  398280    4125722.9     301.2973   -111.02272    284.35599    121.60969    119.30798    111.02272    2.1223238 
  398300    4126845.6    301.56163   -322.27929    284.36311    121.61597    119.33129    322.27929     2.122402 
  398320    4127830.8    300.28352   -360.32336    284.37024    121.64055    119.33268    360.32336    2.1224802 
  398340    4126695.9    301.48362   -287.50548    284.37736    121.58161    119.35471    287.50548    2.1225584 
  398360    4126765.2     300.7799   -232.13959    284.38449    121.62058    119.31548    232.13959    2.1226367 
  398380    4126650.5    300.87414    -285.1367    284.39161    121.63588    119.29417     285.1367    2.1227149 
  398400    4126949.5    299.95938    -293.7942    284.39873    121.62186    119.31357     293.7942    2.1227931 
  398420    4126842.3     299.6641   -231.49852    284.40586    121.58288    119.34574    231.49852    2.1228713 
  398440    4127130.7    300.41492   -231.74428    284.41298    121.62994     119.3049    231.74428    2.1229496 
  398460    4127757.3    301.07021   -166.42773    284.42011    121.63413    119.31592    166.42773    2.1230278 
  398480    4127477.1    300.01786   -177.54869    284.42723    121.63421    119.30475    177.54869     2.123106 
  398500    4129082.9    300.13322   -156.82294    284.43435    121.64524    119.33737    156.82294    2.1231842 
  398520    4130590.1     300.1568   -154.62534    284.44148    121.65072    119.37255    154.62534    2.1232625 
  398540    4129833.3    299.52589   -234.11003     284.4486    121.64723    119.35112    234.11003    2.1233407 
  398560    4128874.4    299.40363   -181.01738    284.45573    121.61602    119.35104    181.01738    2.1234189 
  398580    4129288.2    299.51542   -22.873818    284.46285    121.61053     119.3654    22.873818    2.1234972 
  398600    4129761.3    299.93145   -44.197724    284.46998    121.59255    119.39374    44.197724    2.1235754 
  398620    4130839.3    299.79272   -168.28383     284.4771    121.61977    119.39519    168.28383    2.1236536 
  398640    4131691.7    299.37117   -95.062673    284.48422    121.62698    119.40975    95.062673    2.1237318 
  398660    4132516.1    299.78895   -137.95861    284.49135    121.63949    119.41831    137.95861    2.1238101 
  398680    4132563.2    299.92494   -171.86013    284.49847     121.5986    119.45683    171.86013    2.1238883 
  398700      4133095    300.18368    -120.6501     284.5056    121.63825    119.43027     120.6501    2.1239665 
  398720    4134778.4    299.46601   -271.39628    284.51272    121.63537    119.47875    271.39628    2.1240447 
  398740      4135522    299.95127   -105.88049    284.51985    121.64499    119.48779    105.88049     2.124123 
  398760    4133360.8    300.47595   -215.81568    284.52697    121.62328    119.44368    215.81568    2.1242012 
  398780    4134142.3    300.61621   -102.02485    284.53409    121.63312    119.45361    102.02485    2.1242794 
  398800    4136359.6    300.21127   -236.43919    284.54122    121.65548    119.49271    236.43919    2.1243576 
  398820    4134966.9    299.52146   -337.90682    284.54834    121.64785    119.45699    337.90682    2.1244359 
  398840    4133587.6    300.67553   -345.09551    284.55547    121.59908    119.46204    345.09551    2.1245141 
  398860    4134696.6    301.03936   -363.05162    284.56259     121.5803    119.50956    363.05162    2.1245923 
  398880    4136795.6    301.01613   -481.11598    284.56971    121.62646    119.52185    481.11598    2.1246705 
  398900    4134112.1    300.99195   -385.38444    284.57684    121.56715     119.4996    385.38444    2.1247488 
  398920    4132915.4    300.94298   -250.96788    284.58396    121.56044    119.46862    250.96788     2.124827 
  398940    4133291.2    300.14708   -159.44064    284.59109    121.54955     119.4872    159.44064    2.1249052 
  398960    4130550.4    300.20234   -91.609204    284.59821    121.51171    119.44215    91.609204    2.1249835 
  398980    4129986.4    300.67383   -100.70994    284.60534    121.49158    119.44265    100.70994    2.1250617 
  399000      4130420    299.95329   -193.11001    284.61246    121.53213    119.41233    193.11001    2.1251399 
  399020    4131706.8    300.15444   -166.77527    284.61958    121.53239     119.4463    166.77527    2.1252181 
  399040    4131324.1    300.48207   -364.69338    284.62671    121.51412     119.4502    364.69338    2.1252964 
  399060    4129995.3    300.06067   -222.21245    284.63383    121.47496    119.44728    222.21245    2.1253746 
  399080      4130777    300.69108   -209.27103    284.64096    121.50351    119.43883    209.27103    2.1254528 
  399100    4129890.2    300.39604   -215.04078    284.64808    121.45742    119.45551    215.04078     2.125531 
  399120    4127899.5    300.00515   -219.38282    284.65521     121.4294     119.4225    219.38282    2.1256093 
  399140    4128475.3    299.82808   -161.89272    284.66233    121.46124    119.40485    161.89272    2.1256875 
  399160    4128441.6      299.562   -246.42927    284.66945     121.4524    119.40958    246.42927    2.1257657 
  399180    4127802.5    300.28857   -198.56854    284.67658    121.43754    119.40271    198.56854    2.1258439 
  399200    4126872.9    300.29485   -273.84094     284.6837    121.42989    119.38036    273.84094    2.1259222 
  399220    4128340.7    299.69306    -273.1623    284.69083    121.46765     119.3827     273.1623    2.1260004 
  399240    4128172.4     299.3428   -301.86459    284.69795    121.44352    119.39857    301.86459    2.1260786 
  399260    4129117.4    300.68077   -320.12204    284.70507    121.48047    119.38659    320.12204    2.1261568 
  399280    4129935.1    299.83805   -304.18333     284.7122    121.48241    119.40534    304.18333    2.1262351 
  399300    4131263.8    300.10006   -234.36816    284.71932    121.48162    119.44155    234.36816    2.1263133 
  399320    4129720.7    299.08733   -182.09562    284.72645    121.47006    119.40531    182.09562    2.1263915 
  399340    4129703.4    300.07857   -169.81681    284.73357    121.50348    119.36898    169.81681    2.1264698 
  399360    4130750.9    299.68579   -151.06809     284.7407    121.48359    119.41582    151.06809     2.126548 
  399380    4130734.6    299.62804   -155.14067    284.74782    121.49319    119.40292    155.14067    2.1266262 
  399400      4131835    299.37377   -219.72672    284.75494    121.53868    119.38704    219.72672    2.1267044 
  399420    4132486.8    299.12535   -154.42019    284.76207    121.57443    119.36777    154.42019    2.1267827 
  399440    4132854.7    299.77231   -244.65389    284.76919    121.58573    119.36431    244.65389    2.1268609 
  399460    4132397.7    299.33277   -165.04861    284.77632    121.57396    119.35969    165.04861    2.1269391 
  399480    4132118.5    299.68471   -268.04453    284.78344     121.5564    119.36588    268.04453    2.1270173 
  399500      4133586    299.84154   -228.36862    284.79057    121.58551     119.3767    228.36862    2.1270956 
  399520    4134957.8    299.81972    -288.3787    284.79769    121.60218    119.39696     288.3787    2.1271738 
  399540    4134361.4    300.65108   -261.11339    284.80481    121.57583    119.40262    261.11339     2.127252 
  399560    4135149.6    300.65398   -140.58639    284.81194     121.6265    119.37265    140.58639    2.1273302 
  399580    4136512.1    299.91632    -192.0076    284.81906    121.67482    119.36157     192.0076    2.1274085 
  399600    4137567.9    300.40552   -282.63677    284.82619    121.67916     119.3848    282.63677    2.1274867 
  399620    4137089.7    299.67992   -220.53332    284.83331    121.68637    119.36094    220.53332    2.1275649 
  399640    4136104.4     299.9611   -239.68779    284.84044    121.67261    119.34302    239.68779    2.1276431 
  399660      4135487    300.68881   -196.87502    284.84756    121.64782    119.34654    196.87502    2.1277214 
  399680    4134814.7    300.40084   -242.33441    284.85468    121.62085    119.35061    242.33441    2.1277996 
  399700    4136422.9     300.6751   -218.55066    284.86181    121.62731     119.3877    218.55066    2.1278778 
  399720    4136006.7    300.62303   -333.15755    284.86893    121.63961    119.36063    333.15755    2.1279561 
  399740    4135647.1     300.6707   -116.30271    284.87606    121.63234    119.35441    116.30271    2.1280343 
  399760    4137884.7    300.69694   -248.56654    284.88318    121.69766    119.35191    248.56654    2.1281125 
  399780    4137736.5     300.1297   -251.34347     284.8903    121.71081    119.33175    251.34347    2.1281907 
  399800    4136331.8    300.63875   -174.21133    284.89743    121.66713    119.33108    174.21133     2.128269 
  399820    4137426.8    299.23918   -331.08259    284.90455    121.66325    119.36349    331.08259    2.1283472 
  399840    4139989.2    300.51857    -386.6759    284.91168    121.67277    119.42508     386.6759    2.1284254 
  399860    4138362.7    299.75401   -281.13865     284.9188    121.65231    119.39526    281.13865    2.1285036 
  399880    4136739.4    299.77753    -220.1165    284.92593     121.6264    119.37086     220.1165    2.1285819 
  399900    4138918.7    299.31606   -55.597122    284.93305    121.63432    119.42299    55.597122    2.1286601 
  399920    4139915.6    300.35442   -181.08072    284.94017    121.65917    119.42437    181.08072    2.1287383 
  399940    4138761.5    300.14008   -106.45313     284.9473    121.61284    119.43357    106.45313    2.1288165 
  399960    4139134.6     299.1861   -131.30801    284.95442    121.61804    119.43624    131.30801    2.1288948 
  399980    4141210.5    299.54707   -136.84157    284.96155    121.68835    119.42412    136.84157     2.128973 
  400000    4142077.1    300.15667   -212.14526    284.96867    121.69156    119.44298    212.14526    2.1290512 
Loop time of 61838.2 on 64 procs for 400000 steps with 212040 atoms

Performance: 0.559 ns/day, 42.943 hours/ns, 6.468 timesteps/s
99.6% CPU use with 64 MPI tasks x 1 OpenMP threads

MPI task timing breakdown:
Section |  min time  |  avg time  |  max time  |%varavg| %total
---------------------------------------------------------------
Pair    | 9586.7     | 17565      | 23095      |2455.1 | 28.40
Bond    | 894.72     | 1573       | 1877.5     | 572.8 |  2.54
Kspace  | 3374.3     | 9215.5     | 17878      |3625.3 | 14.90
Neigh   | 31043      | 31245      | 31465      |  79.3 | 50.53
Comm    | 1248.4     | 1531.1     | 1832.6     | 441.4 |  2.48
Output  | 13.987     | 14.514     | 15.415     |   5.6 |  0.02
Modify  | 530.07     | 653.55     | 739.72     | 228.4 |  1.06
Other   |            | 41.16      |            |       |  0.07

Nlocal:        3313.12 ave        4815 max         890 min
Histogram: 5 3 4 7 6 4 1 7 11 16
Nghost:        17223.4 ave       23340 max        9309 min
Histogram: 7 11 7 6 1 0 0 2 6 24
Neighs:    1.82697e+06 ave 3.02418e+06 max      270213 min
Histogram: 7 3 7 8 4 2 4 7 13 9

Total # of neighbors = 1.1692639e+08
Ave neighs/atom = 551.43554
Ave special neighs/atom = 5.9990568
Neighbor list builds = 400000
Dangerous builds not checked
Total wall time: 17:10:42
