LAMMPS (29 Oct 2020)
OMP_NUM_THREADS environment is not set. Defaulting to 1 thread. (../comm.cpp:94)
  using 1 OpenMP thread(s) per MPI task
####################################################
#    This program is free software: you can redistribute it and/or modify
#    it under the terms of the GNU General Public License as published by
#    the Free Software Foundation, either version 3 of the License, or
#    (at your option) any later version.
#
#    This program is distributed in the hope that it will be useful,
#    but WITHOUT ANY WARRANTY; without even the implied warranty of
#    MERCHANTABILITY or FITNESS FOR A PARTICULAR PURPOSE.  See the
#    GNU General Public License for more details.


units		real        ## defines the units style used herein. More information: https://docs.lammps.org/units.html
atom_style	full        ## defines the atom style used herein. More information: https://docs.lammps.org/atom_style.html

# Styles
pair_style      lj/cut/coul/long 15.0 10.0      ## sets the formula(s) LAMMPS uses to compute pairwise interactions; here, lennard-jones (LJ) with long-range Coulomb interaction. More: https://docs.lammps.org/pair_lj_cut_coul.html
pair_modify     shift no                        ## the shift keyword determines whether a Lennard-Jones potential is shifted at its cutoff to 0.0. More: https://docs.lammps.org/pair_modify.html
kspace_style    pppm 1.0e-4                     ## defines a long-range solver for LAMMPS to compute long-range Coulombic interactions. Note: requires use of a matching pair style, i.e. PPPM with coul/long. More: https://docs.lammps.org/kspace_style.html
bond_style      harmonic                        ## defined based off the forcefield used to construct the system; models the atoms' interactions
angle_style     harmonic
dihedral_style  opls
improper_style  cvff
special_bonds   lj 0 0 1 coul 0 0 1

read_data       500K_PMP.lmps      ## input lammps datafile, equilibriated until structure nears experimental properties
Reading data file ...
  orthogonal box = (79.464045 79.464045 79.464045) to (170.53596 170.53596 170.53596)
  4 by 4 by 4 MPI processor grid
  reading atoms ...
  72040 atoms
  reading velocities ...
  72040 velocities
  scanning bonds ...
  2 = max bonds/atom
  scanning angles ...
  6 = max angles/atom
  scanning dihedrals ...
  15 = max dihedrals/atom
  reading bonds ...
  72020 bonds
  reading angles ...
  143880 angles
  reading dihedrals ...
  215640 dihedrals
Finding 1-2 1-3 1-4 neighbors ...
  special bond factors lj:    0.0      0.0      1.0     
  special bond factors coul:  0.0      0.0      1.0     
     4 = max # of 1-2 neighbors
     9 = max # of 1-3 neighbors
    13 = max # of special neighbors
  special bonds CPU = 1.657 seconds
  read_data CPU = 3.989 seconds

dielectric      1.0
neighbor    	1.0 bin
neigh_modify	delay 0 every 1 check no        ## this is to make sure that the neighbor list is updated every timestep, and the atoms don't get lost as the system is being deformed ##

timestep	    1.0                             ## unit = fs, per "real" unit style
run_style       verlet                          ## defines algorithm used for simulation computation; verlet integration is a numerical method used to integrate Newton's equations of motion.

variable stress equal press*-1                         ## computes stress as the negative of press values
variable engStrain equal (lx-91.07191)/91.07191      ## computes engineering strain; lx_0 must be found and inputted manually (for now)

thermo		    20                                                               ## output log data (headers in thermo_style), recorded at every timestep in numList.txt
thermo_style    custom step vol temp press lx ly lz v_stress v_engStrain         ## data headers of output log file. More: https://docs.lammps.org/thermo_style.html

################# Deformation ##################

fix 1 all npt temp 500 500 100 y 1 1 100.0 z 1 1 100.0      ## stress normal to the x direction can vary; external pressure (y and z) = 1atm ##

fix 2 all deform 1 x scale 2.0 remap x                      ## sets a uniaxial (x-direction) deformation in motion, scaling a set amount (here, 4.0x) the initial length


################# Dumping ##################

reset_timestep 0

dump dump2 all custom 4000 sim.lammpstrj id mol type q xs ys zs ix iy iz

restart 8000 PMP.restart

run 		80000              ## this depends on the overall strain rate, where strain rate = deformScale / runTimeSteps (consider units!)
PPPM initialization ...
  using 12-bit tables for long-range coulomb (../kspace.cpp:328)
  G vector (1/distance) = 0.20213441
  grid = 24 24 24
  stencil order = 5
  estimated absolute RMS force accuracy = 0.023305294
  estimated relative force accuracy = 7.0183201e-05
  using double precision FFTW3
  3d grid and FFT values/proc = 1331 216
Neighbor list info ...
  update every 1 steps, delay 0 steps, check no
  max neighbors/atom: 2000, page size: 100000
  master list distance cutoff = 16
  ghost atom cutoff = 16
  binsize = 8, bins = 12 12 12
  1 neighbor lists, perpetual/occasional/extra = 1 0 0
  (1) pair lj/cut/coul/long, perpetual
      attributes: half, newton on
      pair build: half/bin/newton
      stencil: half/bin/3d/newton
      bin: standard
Per MPI rank memory allocation (min/avg/max) = 18.62 | 19.32 | 19.78 Mbytes
Step Volume Temp Press Lx Ly Lz v_stress v_engStrain 
       0    755358.88    501.97846    4608.9964     91.07191     91.07191     91.07191   -4608.9964 2.1543697e-09 
      20     761402.8    509.35776   -231.02198    91.094678    91.445932    91.402288    231.02198 0.00025000215 
      40    762965.97    506.75362   -477.43388    91.117446    91.545697    91.467265    477.43388 0.00050000216 
      60    760759.18    505.88665   -488.51154    91.140214    91.441265    91.284057    488.51154 0.00075000216 
      80    760310.09    505.91667   -418.51603    91.162982     91.42599    91.222624    418.51603 0.0010000022 
     100    760298.37    507.61244   -353.54346     91.18575    91.420859     91.20356    353.54346 0.0012500022 
     120    759180.47    509.92251    1405.2872    91.208518    91.317013    91.150264   -1405.2872 0.0015000022 
     140    761194.99    505.62942   -223.60346    91.231286    91.422622     91.26378    223.60346 0.0017500022 
     160    761320.41    505.96262   -393.30521    91.254054     91.41057    91.268075    393.30521 0.0020000022 
     180    760586.76    502.86944   -107.30328    91.276822    91.354462    91.213367    107.30328 0.0022500022 
     200     761727.2    501.99177    148.91636     91.29959    91.434064    91.247845   -148.91636 0.0025000022 
     220    762919.23    503.47218   -114.04584    91.322358    91.475975    91.325993    114.04584 0.0027500022 
     240    762162.19    499.83189    52.860985    91.345126    91.373065    91.315359   -52.860985 0.0030000022 
     260    761981.93     501.7986    53.072035    91.367894    91.318244    91.325804   -53.072035 0.0032500022 
     280    763366.58    501.99895   -306.31131    91.390662    91.406134    91.381015    306.31131 0.0035000022 
     300    763770.76    501.00496   -52.172778     91.41343    91.454961    91.357826    52.172778 0.0037500022 
     320    763416.15    502.08489    497.73076    91.436198    91.357217    91.390346   -497.73076 0.0040000022 
     340    763803.93    501.12147    152.60651    91.458966    91.325051    91.446203   -152.60651 0.0042500022 
     360     764730.9    497.69494   -185.10869    91.481734    91.428541    91.430788    185.10869 0.0045000022 
     380    764530.49    502.12524   -272.48552    91.504502    91.491357    91.321341    272.48552 0.0047500022 
     400    764189.71    497.29572     7.882258     91.52727     91.41467    91.334485    -7.882258 0.0050000022 
     420     763239.5    500.90625     426.0569    91.550038     91.34984    91.262954    -426.0569 0.0052500022 
     440    763350.95    497.86685    149.77685    91.572806    91.344111    91.259308   -149.77685 0.0055000022 
     460    764203.17     499.9561   -431.66444    91.595574    91.408068    91.274574    431.66444 0.0057500022 
     480    763119.65    498.76093   -372.57115    91.618342      91.3519    91.178539    372.57115 0.0060000022 
     500    762123.72    501.54843   -210.13377     91.64111     91.25368    91.134907    210.13377 0.0062500022 
     520       762476    498.34236    311.59085    91.663878    91.264209    91.143868   -311.59085 0.0065000022 
     540    762421.91    498.33131    491.86415    91.686646    91.332278    91.046864   -491.86415 0.0067500022 
     560    763046.85    499.17272   -253.87905    91.709414    91.397237    91.034125    253.87905 0.0070000022 
     580    762863.07    497.15993   -283.24181    91.732182    91.397049    90.989797    283.24181 0.0072500022 
     600    762981.99    498.34044   -274.61681     91.75495    91.449658     90.92906    274.61681 0.0075000022 
     620     763763.6    499.72224   -96.512727    91.777718    91.484843     90.96463    96.512727 0.0077500022 
     640    763807.34    498.31066    318.11488    91.800485    91.470284    90.961753   -318.11488 0.0080000022 
     660    763875.58    501.20948   -265.07806    91.823253    91.505849    90.911976    265.07806 0.0082500022 
     680    763884.59    499.79737    361.62184    91.846021    91.473645     90.92251   -361.62184 0.0085000022 
     700    764918.97    502.46045   -494.29458    91.868789    91.505572    90.991305    494.29458 0.0087500022 
     720    764963.85    499.67508   -426.21346    91.891557    91.494132    90.985473    426.21346 0.0090000022 
     740    764764.51    500.42277   -176.61655    91.914325    91.454646    90.978496    176.61655 0.0092500022 
     760    764703.89    500.93539   -61.665917    91.937093    91.440194     90.96313    61.665917 0.0095000022 
     780    764428.17    499.29081   -67.849288    91.959861    91.437298    90.910698    67.849288 0.0097500022 
     800    764551.37     501.5464   -181.94005    91.982629     91.37614    90.963684    181.94005  0.010000002 
     820    765294.17    502.26227   -154.58132    92.005397    91.414694    90.991137    154.58132  0.010250002 
     840    765321.43    500.88597   -61.373135    92.028165     91.42602    90.960596    61.373135  0.010500002 
     860    764947.43    501.18771   -20.004522    92.050933    91.368599     90.95078    20.004522  0.010750002 
     880    764173.99    498.97384     336.1728    92.073701    91.277299    90.927211    -336.1728  0.011000002 
     900    764381.43    500.79271   -422.46321    92.096469     91.33385    90.873108    422.46321  0.011250002 
     920    765305.45    501.26471    -583.6252    92.119237    91.401985    90.892667     583.6252  0.011500002 
     940       764822    499.75705   -9.5646345    92.142005    91.368384    90.846201    9.5646345  0.011750002 
     960    764074.19    499.60947   -397.43006    92.164773     91.25411    90.848578    397.43006  0.012000002 
     980    763892.22    497.99324    57.525177    92.187541    91.167334    90.890941   -57.525177  0.012250002 
    1000     764102.4    497.79289    220.12368    92.210309    91.148347    90.912434   -220.12368  0.012500002 
    1020     764254.3    498.19746   -400.72588    92.233077    91.152846    90.903575    400.72588  0.012750002 
    1040    763836.54    499.71356   -117.14529    92.255845    91.152644    90.831664    117.14529  0.013000002 
    1060    764555.11    498.32611   -376.60678    92.278613    91.172951    90.874435    376.60678  0.013250002 
    1080    766328.49    499.94265   -138.46278    92.301381    91.266026    90.969883    138.46278  0.013500002 
    1100    767107.87    498.45823    92.632921    92.324149    91.321998    90.984145   -92.632921  0.013750002 
    1120    766892.32    501.10531    386.43955    92.346917    91.328109    90.930069   -386.43955  0.014000002 
    1140    767368.69    499.47767   -147.14832    92.369685    91.299102    90.993026    147.14832  0.014250002 
    1160    767671.34    498.14341   -762.30202    92.392453    91.260038    91.045437    762.30202  0.014500002 
    1180    767444.36    502.02441   -194.98219    92.415221    91.178468    91.077501    194.98219  0.014750002 
    1200    768063.25    500.24928   -187.86091    92.437989    91.172783    91.134179    187.86091  0.015000002 
    1220    767787.34    499.43305    283.45793    92.460757    91.191064    91.060749   -283.45793  0.015250002 
    1240    767557.82    501.57959    289.81341    92.483525    91.227965    90.974304   -289.81341  0.015500002 
    1260    768985.93    498.95073    -354.7813    92.506293    91.190886    91.158187     354.7813  0.015750002 
    1280    769110.09    497.93284   -222.06243    92.529061    91.159495    91.181859    222.06243  0.016000002 
    1300    768745.27    500.83335     162.0676    92.551829     91.18935    91.086356    -162.0676  0.016250002 
    1320     769441.8      501.059   -222.14256    92.574597     91.17534    91.160469    222.14256  0.016500002 
    1340    769097.35    500.83366    179.10712    92.597365    91.125956    91.146624   -179.10712  0.016750002 
    1360    768342.13    502.84916    128.42226    92.620133    91.123233    91.037459   -128.42226  0.017000002 
    1380    768784.94     502.0831    6.3458395    92.642901     91.17694    91.013897   -6.3458395  0.017250002 
    1400    768640.26    503.60212   -7.4122281    92.665669    91.168606    90.982727    7.4122281  0.017500002 
    1420    768320.99    502.17839   -256.89663    92.688437    91.175514    90.915707    256.89663  0.017750002 
    1440    768299.87      503.614   -485.11976    92.711205    91.170268    90.896112    485.11976  0.018000002 
    1460    768595.92    503.82244    37.065006    92.733973    91.177788    90.901313   -37.065006  0.018250002 
    1480    768083.14    501.51608    190.41602    92.756741    91.140154     90.85587   -190.41602  0.018500002 
    1500    767930.58    500.93732    7.5358177    92.779509    91.149959    90.805764   -7.5358177  0.018750002 
    1520     767700.8    503.23608   -1.3534514    92.802276    91.074741    90.831277    1.3534514  0.019000002 
    1540    768171.63    499.47734   -389.90848    92.825044     91.03738    90.901982    389.90848  0.019250002 
    1560    768384.69    502.10371   -191.48978    92.847812    91.031719     90.91055    191.48978  0.019500002 
    1580    768987.69    500.47991    180.28258     92.87058    91.055312     90.93602   -180.28258  0.019750002 
    1600    769715.78    502.63895   -497.44284    92.893348    91.045001    91.010115    497.44284  0.020000002 
    1620    769193.02    499.72396    110.94243    92.916116    90.980908    90.990074   -110.94243  0.020250002 
    1640     769062.3    499.55229    546.48376    92.938884     90.95165    90.981582   -546.48376  0.020500002 
    1660    769961.05    497.90139   -311.36338    92.961652    90.978038    91.039184    311.36338  0.020750002 
    1680    769927.64    499.92529   -192.63813     92.98442     91.01488    90.976102    192.63813  0.021000002 
    1700    770496.81    498.95852   -547.66741    93.007188    91.022825    91.013124    547.66741  0.021250002 
    1720    771149.47      499.211    -308.4009    93.029956    91.008539     91.08222     308.4009  0.021500002 
    1740    770564.73    499.75515    311.16001    93.052724    90.980341    91.019086   -311.16001  0.021750002 
    1760    770667.75    500.11155     487.3821    93.075492    90.990516     90.99881    -487.3821  0.022000002 
    1780    771568.83    500.00083   -209.58148     93.09826    90.952477    91.121022    209.58148  0.022250002 
    1800    771907.76    498.38191   -698.72923    93.121028    90.863853    91.227652    698.72923  0.022500002 
    1820    772130.12    499.24389   -279.91278    93.143796    90.826532    91.269113    279.91278  0.022750002 
    1840    773433.68    499.36367    27.347419    93.166564    90.921082    91.305809   -27.347419  0.023000002 
    1860    773840.62    500.15327   -162.54907    93.189332    90.974671    91.277729    162.54907  0.023250002 
    1880    773078.09    499.66383     431.0015      93.2121    90.989925     91.15023    -431.0015  0.023500002 
    1900    774057.79    498.37066   -359.12516    93.234868    91.090314    91.142896    359.12516  0.023750002 
    1920     774029.5    498.16816   -496.70428    93.257636    91.136487    91.071151    496.70428  0.024000002 
    1940    773855.28    498.55759    24.743249    93.280404    91.150037    91.014897   -24.743249  0.024250002 
    1960     774329.1    498.43925   -106.02414    93.303172    91.131537    91.066885    106.02414  0.024500002 
    1980    774090.25     499.5301   -146.44569     93.32594    91.131273    91.016847    146.44569  0.024750002 
    2000    773135.43    499.25031    179.44326    93.348708    91.098993    90.914612   -179.44326  0.025000002 
    2020    773419.51    500.86434   -2.5040644    93.371476     91.10288    90.921961    2.5040644  0.025250002 
    2040    773110.95    500.02049   -291.82268    93.394244    90.997841    90.968415    291.82268  0.025500002 
    2060    772355.23    500.56834    287.25923    93.417012    90.921112    90.934018   -287.25923  0.025750002 
    2080    772476.93    499.54017   -337.57993     93.43978    90.915791    90.931506    337.57993  0.026000002 
    2100    771105.75    501.48114    -43.99291    93.462548    90.786527    90.877197     43.99291  0.026250002 
    2120    770923.45    501.08033    112.43137    93.485316    90.744592     90.87556   -112.43137  0.026500002 
    2140    772015.69    501.97066   -631.58649    93.508084    90.764537    90.962162    631.58649  0.026750002 
    2160    771330.19    502.07939   -24.186619    93.530852    90.714776    90.909111    24.186619  0.027000002 
    2180    770901.06    501.37674    158.73125     93.55362    90.721957     90.82923   -158.73125  0.027250002 
    2200    771874.36    503.07581   -373.68548    93.576388    90.780849    90.862797    373.68548  0.027500002 
    2220    771104.18    500.60037   -69.418197    93.599156    90.691677    90.839282    69.418197  0.027750002 
    2240    770914.33    502.01686    43.220502    93.621924     90.68878    90.797731   -43.220502  0.028000002 
    2260    771359.26    502.61513   -113.70644    93.644692    90.771914    90.744861    113.70644  0.028250002 
    2280    771090.76    501.56091   -251.96583     93.66746    90.676658    90.786496    251.96583  0.028500002 
    2300     770377.8    499.52693     170.9688    93.690228      90.6363    90.720889    -170.9688  0.028750002 
    2320    770800.78      501.731   -155.17204    93.712996    90.641813    90.743127    155.17204  0.029000002 
    2340     771081.2    498.92056   -232.57528    93.735764    90.634363    90.761551    232.57528  0.029250002 
    2360    771201.41    497.96425   -109.76955    93.758532    90.594708    90.793382    109.76955  0.029500002 
    2380    771459.85    498.72568   -191.62009      93.7813    90.590571    90.805904    191.62009  0.029750002 
    2400    771848.21    498.21903   -530.75907    93.804068    90.607996    90.812098    530.75907  0.030000002 
    2420    771990.54    499.42217    188.44225    93.826835    90.691386    90.723306   -188.44225  0.030250002 
    2440    772833.55    499.87735   -176.89852    93.849603    90.739285    90.752411    176.89852  0.030500002 
    2460    772285.36    501.29816    15.271315    93.872371    90.593791    90.811654   -15.271315  0.030750002 
    2480    772011.28    499.63636   -45.795366    93.895139    90.520341    90.831054    45.795366  0.031000002 
    2500    772558.07    501.26745   -252.92019    93.917907     90.58556    90.807925    252.92019  0.031250002 
    2520    772134.52    500.84305    144.45268    93.940675    90.576323    90.745397   -144.45268  0.031500002 
    2540    771628.04    498.75677    143.29641    93.963443    90.586759    90.653454   -143.29641  0.031750002 
    2560    771898.72    500.81218   -273.14317    93.986211    90.608714    90.641318    273.14317  0.032000002 
    2580    771055.24    498.64662   -18.642372    94.008979    90.516304    90.612756    18.642372  0.032250002 
    2600    771016.14    499.68845   -340.57134    94.031747    90.507999    90.594535    340.57134  0.032500002 
    2620    771450.54    499.86355    8.1636555    94.054515    90.490425    90.641234   -8.1636555  0.032750002 
    2640    772075.72    503.11693   -195.54336    94.077283    90.514915    90.668197    195.54336  0.033000002 
    2660    772120.55    501.09322   -122.91804    94.100051    90.560275    90.606116    122.91804  0.033250002 
    2680    772095.67    499.68883    121.28754    94.122819    90.547882    90.593679   -121.28754  0.033500002 
    2700    772814.05    502.12771   -252.26996    94.145587    90.619718    90.584174    252.26996  0.033750002 
    2720       773226    502.53482    -195.3699    94.168355    90.695614    90.534723     195.3699  0.034000002 
    2740    772746.62    502.75774    157.90743    94.191123    90.620401    90.531801   -157.90743  0.034250002 
    2760    772909.25    500.29047    74.299279    94.213891    90.530011    90.619361   -74.299279  0.034500002 
    2780    774395.62    501.50908   -489.02628    94.236659    90.634834    90.666711    489.02628  0.034750002 
    2800    774623.92     502.8097   -213.95313    94.259427    90.668324    90.638043    213.95313  0.035000002 
    2820    774410.79    501.65374    111.36858    94.282195     90.65428    90.605258   -111.36858  0.035250002 
    2840    775203.68    500.22783   -225.32947    94.304963     90.65791    90.672497    225.32947  0.035500002 
    2860    775132.06    499.25482    48.829018    94.327731    90.635276    90.664872   -48.829018  0.035750002 
    2880    775349.43    499.00368   -276.98691    94.350499    90.569206    90.734554    276.98691  0.036000002 
    2900    776379.84    499.17716   -393.67883    94.373267    90.634526    90.767754    393.67883  0.036250002 
    2920    776809.59    499.30364   -221.82858    94.396035    90.647583    90.783014    221.82858  0.036500002 
    2940    776151.74    500.94571    155.30544    94.418803    90.539265    90.792752   -155.30544  0.036750002 
    2960    777844.57    497.99018    16.177608    94.441571    90.569102    90.938872   -16.177608  0.037000002 
    2980    778483.24    499.46979   -134.34576    94.464339    90.556428    91.004338    134.34576  0.037250002 
    3000    778107.55    499.65857   -56.097563    94.487107    90.513081    90.982052    56.097563  0.037500002 
    3020    778865.83    499.01887   -607.98957    94.509875    90.508007     91.05388    607.98957  0.037750002 
    3040    778192.87    500.22041   -332.74107    94.532643    90.486487    90.974927    332.74107  0.038000002 
    3060    777640.53    498.41624    14.876978    94.555411    90.377011    90.998561   -14.876978  0.038250002 
    3080    778082.99    500.64795    97.147843    94.578179    90.393732     91.01158   -97.147843  0.038500002 
    3100    777590.36     500.0048    20.655722    94.600947    90.342954    90.983177   -20.655722  0.038750002 
    3120    776777.29    500.82847    188.14227    94.623715    90.243507    90.966307   -188.14227  0.039000002 
    3140    777936.88    500.89485    -838.8886    94.646483    90.232744    91.091051     838.8886  0.039250002 
    3160    776026.91    500.07575   -168.56393    94.669251     90.10789    90.971429    168.56393  0.039500002 
    3180    774602.87    502.99732    328.52022    94.692019    90.046791    90.844259   -328.52022  0.039750002 
    3200    774994.36     502.0582    100.17187    94.714787    90.103064    90.811573   -100.17187  0.040000002 
    3220    775092.13    501.91011    -92.66399    94.737555    90.146731    90.757218     92.66399  0.040250002 
    3240    775341.55    503.63805   -143.61089    94.760323     90.14631    90.765034    143.61089  0.040500002 
    3260    775457.92    502.25626   -229.58858    94.783091    90.172694    90.730295    229.58858  0.040750002 
    3280     774474.6     502.4092    66.220948    94.805859    90.093042    90.673578   -66.220948  0.041000002 
    3300    774438.18    504.95479   -400.14469    94.828626    90.138841    90.601487    400.14469  0.041250002 
    3320    774574.65    500.09627   -266.49173    94.851394    90.171335    90.563053    266.49173  0.041500002 
    3340    775362.52    501.95465   -319.71832    94.874162    90.122745    90.682281    319.71832  0.041750002 
    3360    775608.35    502.53699    139.45375     94.89693    90.098329    90.713844   -139.45375  0.042000002 
    3380     776035.3    501.04917   -129.08409    94.919698    90.075116    90.765394    129.08409  0.042250002 
    3400    776267.11    500.10232   -20.231427    94.942466    90.068394    90.777508    20.231427  0.042500002 
    3420     777619.9    502.83374   -268.52367    94.965234    90.166312    90.815173    268.52367  0.042750002 
    3440    777595.61    500.85282   -572.30618    94.988002    90.239687    90.716747    572.30618  0.043000002 
    3460     777722.5    502.07863    200.08908     95.01077    90.294666    90.654576   -200.08908  0.043250002 
    3480     778791.4    501.57118   -204.49923    95.033538    90.369624    90.682143    204.49923  0.043500002 
    3500    778099.61    500.26255    208.66171    95.056306    90.311182    90.638506   -208.66171  0.043750002 
    3520    778103.52    503.83019    -373.9277    95.079074    90.366395     90.56189     373.9277  0.044000002 
    3540    778275.12    498.35408    -517.7578    95.101842     90.35611    90.570485     517.7578  0.044250002 
    3560    778496.77    500.03851   -427.98261     95.12461    90.265607    90.665408    427.98261  0.044500002 
    3580    778565.75    500.56925    204.51115    95.147378    90.264822    90.652532   -204.51115  0.044750002 
    3600    779203.49    500.81692    134.23013    95.170146    90.313413     90.65628   -134.23013  0.045000002 
    3620    778805.28    500.91535   -10.280928    95.192914      90.2973    90.604445    10.280928  0.045250002 
    3640    778447.83    498.13032    -259.8028    95.215682    90.308965    90.529509     259.8028  0.045500002 
    3660    777536.12    499.66291   -563.59562     95.23845    90.292946    90.417903    563.59562  0.045750002 
    3680    777008.44    499.22982   -336.82719    95.261218    90.255445    90.372478    336.82719  0.046000002 
    3700    777101.67    497.58503   -3.2370807    95.283986    90.198319    90.418954    3.2370807  0.046250002 
    3720     777307.8    500.94827   -52.937054    95.306754    90.114787    90.505148    52.937054  0.046500002 
    3740    777418.71    500.11682    61.555554    95.329522    90.079883    90.531509   -61.555554  0.046750002 
    3760    777504.81    498.97737    224.36534     95.35229    90.042114    90.557886   -224.36534  0.047000002 
    3780    777182.26    499.96633   -186.93178    95.375058    90.033423    90.507444    186.93178  0.047250002 
    3800    777683.41     499.7387   -289.05955    95.397826    90.054704    90.522794    289.05955  0.047500002 
    3820    778584.42     499.1007   -189.22017    95.420594    90.047091    90.613708    189.22017  0.047750002 
    3840    778812.75    498.47822   -167.62099    95.443362    90.029138    90.636731    167.62099  0.048000002 
    3860    778773.69    501.62814   -88.424752     95.46613    90.040162    90.599476    88.424752  0.048250002 
    3880    778450.08    498.94995   -235.82349    95.488898    90.042501    90.537884    235.82349  0.048500002 
    3900    777469.68     499.1711    152.34544    95.511666    90.002407    90.442575   -152.34544  0.048750002 
    3920    777171.92    502.67257    37.714892    95.534434    90.048386    90.340239   -37.714892  0.049000002 
    3940    777022.92    500.49517   -192.74634    95.557202    90.101075    90.248591    192.74634  0.049250002 
    3960    777177.07    499.45911   -235.67714     95.57997    90.127301    90.218733    235.67714  0.049500002 
    3980    778516.66    499.57891   -522.31391    95.602738    90.182089    90.297825    522.31391  0.049750002 
    4000    778536.81    499.43628    42.902256    95.625506    90.155638     90.30515   -42.902256  0.050000002 
    4020    778562.66    501.89943    22.889764    95.648274    90.179963    90.262297   -22.889764  0.050250002 
    4040    779715.53    501.36328   -476.42314    95.671042    90.264095    90.290206    476.42314  0.050500002 
    4060    779211.88    499.49376   -221.59482     95.69381    90.237445    90.237058    221.59482  0.050750002 
    4080    778848.18    500.43683    55.371605    95.716578    90.155832    90.255114   -55.371605  0.051000002 
    4100     780345.8    500.30784   -507.98395    95.739346    90.206382    90.356495    507.98395  0.051250002 
    4120    780016.73    502.10183    353.44901    95.762114    90.177051    90.326288   -353.44901  0.051500002 
    4140    780383.31    501.36616   -478.42295    95.784882    90.155835     90.36852    478.42295  0.051750002 
    4160    780247.39    500.76235    302.82812     95.80765    90.091108    90.396207   -302.82812  0.052000002 
    4180    781436.53    502.09802   -215.28828    95.830418    90.209531    90.393646    215.28828  0.052250002 
    4200    781592.18    500.02049   -115.42876    95.853185     90.20281    90.396911    115.42876  0.052500002 
    4220    781672.77    499.94787   -648.42578    95.875953    90.179287    90.408339    648.42578  0.052750002 
    4240    780474.78     498.7799    390.04873    95.898721     90.10506    90.322693   -390.04873  0.053000002 
    4260    781206.54    500.57077   -305.48576    95.921489    90.092305    90.398715    305.48576  0.053250002 
    4280    781017.59    498.64825    11.436057    95.944257    90.032374     90.41555   -11.436057  0.053500002 
    4300    780931.83    499.96233   -147.11651    95.967025     89.98453     90.43223    147.11651  0.053750002 
    4320    780192.26    498.74446   -45.961661    95.989793     89.87752    90.432701    45.961661  0.054000002 
    4340    780380.74    499.73484   -329.71514    96.012561    89.913466    90.396944    329.71514  0.054250002 
    4360    781313.95    498.61813   -188.79351    96.035329    89.985979    90.410672    188.79351  0.054500002 
    4380    781357.42    499.76497   -22.772427    96.058097    89.978049    90.402239    22.772427  0.054750002 
    4400    781196.07     499.5464     148.4685    96.080865    89.989145    90.351011    -148.4685  0.055000002 
    4420    782223.39    498.81188    207.74688    96.103633    90.039619    90.397691   -207.74688  0.055250002 
    4440    782693.92    499.66615   -739.49679    96.126401    90.090206    90.379868    739.49679  0.055500002 
    4460    781031.79    495.62304   -207.90841    96.149169    89.966622    90.290439    207.90841  0.055750002 
    4480     780751.7    498.02835   -136.57596    96.171937    89.862243    90.341505    136.57596  0.056000002 
    4500    781109.68    499.27668   -437.79665    96.194705    89.887681    90.335962    437.79665  0.056250002 
    4520    781397.38    500.05184    134.79699    96.217473    89.935958    90.299353   -134.79699  0.056500002 
    4540    782097.58    501.69467    231.83855    96.240241    89.940234    90.354591   -231.83855  0.056750002 
    4560    782293.59    500.71733    57.319369    96.263009    89.980292    90.315634   -57.319369  0.057000002 
    4580    782430.64    501.03607    -646.9083    96.285777    90.024548    90.265701     646.9083  0.057250002 
    4600    782437.69    501.40468   -555.40139    96.308545    90.053553    90.216108    555.40139  0.057500002 
    4620    782021.74    500.56103   -255.92044    96.331313    90.089309    90.111059    255.92044  0.057750002 
    4640    781555.33    501.83451    332.32491    96.354081    90.086186    90.039155   -332.32491  0.058000002 
    4660    780995.71    498.91733    683.50742    96.376849     90.05887    89.980713   -683.50742  0.058250002 
    4680    781643.16    500.78493   -216.62913    96.399617    90.113769    89.979187    216.62913  0.058500002 
    4700    781706.58    499.04735   -845.63756    96.422385    90.056821     90.02213    845.63756  0.058750002 
    4720     781350.4     500.6991   -902.83268    96.445153    89.954157    90.062541    902.83268  0.059000002 
    4740    781201.59     499.9665   -93.963197    96.467921    89.944296    90.034005    93.963197  0.059250002 
    4760    781575.26    501.00288    256.66089    96.490689    89.939004    90.061116   -256.66089  0.059500002 
    4780    781521.23    500.96204    609.71593    96.513457    89.907885    90.064808   -609.71593  0.059750002 
    4800     783436.7    502.33404   -453.11127    96.536225    89.987983    90.183914    453.11127  0.060000002 
    4820    783841.94    499.25881   -293.15959    96.558993    90.022617    90.174582    293.15959  0.060250002 
    4840    783690.97    498.28048   -209.31685    96.581761    89.961899    90.196796    209.31685  0.060500002 
    4860     784123.5    499.60307    -184.0137    96.604529    89.941142     90.24613     184.0137  0.060750002 
    4880    784950.94    500.52492   -284.42963    96.627297    90.014727    90.246239    284.42963  0.061000002 
    4900    785034.67    499.32334   -262.57844    96.650065    90.039215    90.210064    262.57844  0.061250002 
    4920    784396.06    499.81115    70.455522    96.672833     89.99393    90.160797   -70.455522  0.061500002 
    4940    784663.03    499.09766   -267.91801    96.695601     90.03344    90.130676    267.91801  0.061750002 
    4960    784721.16    496.46936    211.71475    96.718369    90.030796    90.118781   -211.71475  0.062000002 
    4980    785427.38    499.82363   -281.70872    96.741137    90.051253     90.15817    281.70872  0.062250002 
    5000    785586.56    499.08565    -221.2287    96.763905    90.063892    90.142572     221.2287  0.062500002 
    5020    785599.38    498.02926   -199.15129    96.786673    90.041909    90.144841    199.15129  0.062750002 
    5040    786439.91    500.84439   -407.71033    96.809441     90.08208    90.179834    407.71033  0.063000002 
    5060    786926.68    498.91325   -365.72461    96.832209    90.123714    90.172757    365.72461  0.063250002 
    5080    786245.48    500.05126   -81.729441    96.854976    90.069974    90.127263    81.729441  0.063500002 
    5100    785983.06    499.10988   -380.10865    96.877744    90.016442    90.129575    380.10865  0.063750002 
    5120    786431.32    498.97185   -3.2086957    96.900512    89.983925     90.19237    3.2086957  0.064000002 
    5140    786929.45    501.22042   -344.42828     96.92328    89.964087    90.248193    344.42828  0.064250002 
    5160    785987.37    500.84333    24.467378    96.946048    89.854025     90.22937   -24.467378  0.064500002 
    5180    786188.83    503.08968    27.693397    96.968816    89.848101    90.237255   -27.693397  0.064750002 
    5200    787427.04    502.52141   -225.34445    96.991584    89.889511    90.316532    225.34445  0.065000002 
    5220    786764.59    501.96099   -156.69625    97.014352     89.78653    90.322849    156.69625  0.065250002 
    5240    785165.82    502.36202   -351.97193     97.03712    89.725929    90.179022    351.97193  0.065500002 
    5260    785102.97    500.69564   -340.51231    97.059888    89.748183    90.128297    340.51231  0.065750002 
    5280    785170.46    501.73259    62.171347    97.082656    89.716435    90.146796   -62.171347  0.066000002 
    5300    785258.53    501.00423   -260.55352    97.105424    89.722987    90.129186    260.55352  0.066250002 
    5320    784453.97    500.99888    57.992958    97.128192    89.664605    90.074346   -57.992958  0.066500002 
    5340    784616.73    501.10877   -523.00824     97.15096     89.64553    90.091087    523.00824  0.066750002 
    5360    784177.21    500.58928    314.10624    97.173728    89.550086    90.115469   -314.10624  0.067000002 
    5380    785011.32    501.80781   -279.21722    97.196496    89.590995    90.149007    279.21722  0.067250002 
    5400    784490.17    500.66173   -135.45784    97.219264    89.521398    90.138083    135.45784  0.067500002 
    5420    783764.19    500.88615   -239.32993    97.242032    89.452022    90.103411    239.32993  0.067750002 
    5440    783457.39    502.98615   -642.52108      97.2648    89.417506    90.081816    642.52108  0.068000002 
    5460    783025.82    499.39537    74.162601    97.287568     89.44116     89.98732   -74.162601  0.068250002 
    5480    783294.04    500.63546   -146.83866    97.310336    89.475214     89.96283    146.83866  0.068500002 
    5500    783441.53    499.45865   -376.04681    97.333104    89.439917    89.994222    376.04681  0.068750002 
    5520    783200.31    498.71572    121.60707    97.355872    89.396743    89.988912   -121.60707  0.069000002 
    5540    783714.86    500.13539   -6.0798556     97.37864    89.438416    89.985032    6.0798556  0.069250002 
    5560    783556.73    499.03889   -248.78217    97.401408    89.485604    89.898416    248.78217  0.069500002 
    5580    783571.27     498.6089   -211.18552    97.424176    89.457594    89.907216    211.18552  0.069750002 
    5600    785044.91    501.47346   -601.33111    97.446944    89.468671    90.044106    601.33111  0.070000002 
    5620    784663.31    499.71151    315.88209    97.469712    89.473279     89.97468   -315.88209  0.070250002 
    5640    784267.49     501.6206   -82.893227     97.49248     89.50122    89.880223    82.893227  0.070500002 
    5660    783963.84    499.56447    150.38509    97.515248    89.476686    89.849076   -150.38509  0.070750002 
    5680    784534.57    498.35307   -815.10593    97.538016    89.464399    89.905844    815.10593  0.071000002 
    5700    783997.06    499.76566    -203.7838    97.560784    89.426665     89.86118     203.7838  0.071250002 
    5720    784792.92    500.53285    -266.3919    97.583552    89.438201    89.919814     266.3919  0.071500002 
    5740     784840.9    500.51324    203.15856     97.60632    89.391982    89.950819   -203.15856  0.071750002 
    5760     784403.3    498.04505   -180.34911    97.629088    89.371369     89.90043    180.34911  0.072000002 
    5780    783505.81    499.93215   -208.01851    97.651856    89.269594    89.878986    208.01851  0.072250002 
    5800    783657.91    498.65787    -59.31629    97.674624    89.223331    89.922079     59.31629  0.072500002 
    5820    784597.02    499.20968   -194.09421    97.697392    89.254407    89.977519    194.09421  0.072750002 
    5840    784658.34    500.77868   -44.910267     97.72016    89.221756    89.996508    44.910267  0.073000002 
    5860    784808.83    497.46168   -226.82727    97.742928    89.194655    90.020144    226.82727  0.073250002 
    5880    785334.71    498.23155   -830.89734    97.765696    89.210611    90.043378    830.89734  0.073500002 
    5900    784770.84    499.33681    137.97992    97.788464    89.214424    89.953934   -137.97992  0.073750002 
    5920       784518    499.56237    432.89415    97.811232    89.216747    89.901679   -432.89415  0.074000002 
    5940    784972.57    501.42628    57.417531       97.834    89.236103    89.913329   -57.417531  0.074250002 
    5960    785681.41    498.52571   -350.02144    97.856768    89.178509    90.031691    350.02144  0.074500002 
    5980    785837.17    500.30475   -375.22604    97.879535    89.128767    90.078836    375.22604  0.074750002 
    6000     786441.1    500.51854   -380.64421    97.902303    89.148125    90.107528    380.64421  0.075000002 
    6020     787304.1    501.02478    94.578374    97.925071    89.195338    90.137697   -94.578374  0.075250002 
    6040    787808.79    501.14474   -133.08933    97.947839    89.254888    90.114349    133.08933  0.075500002 
    6060    787461.59    500.58889   -7.1502862    97.970607    89.179369    90.129961    7.1502862  0.075750002 
    6080    787995.62    502.64872   -212.67678    97.993375    89.127701    90.222402    212.67678  0.076000002 
    6100    788340.37    500.24555    36.923062    98.016143    89.160415    90.207797   -36.923062  0.076250002 
    6120    789298.23    500.92957    -389.4356    98.038911    89.185784    90.270742     389.4356  0.076500002 
    6140    789862.59    501.05673   -128.55116    98.061679    89.214005    90.285745    128.55116  0.076750002 
    6160    790263.45    498.68417   -502.55061    98.084447    89.233012     90.29136    502.55061  0.077000002 
    6180    788883.22    502.62978    161.94465    98.107215    89.072461     90.27517   -161.94465  0.077250002 
    6200    789028.42    500.02578    120.11719    98.129983    89.026409    90.317534   -120.11719  0.077500002 
    6220    788471.61    501.06191    215.32142    98.152751    88.973619    90.286398   -215.32142  0.077750002 
    6240    788349.19    500.99636   -399.90139    98.175519     88.96704    90.258119    399.90139  0.078000002 
    6260    787876.83    500.37052   -264.03304    98.198287    88.929569    90.221122    264.03304  0.078250002 
    6280    788215.06    498.37947   -169.93353    98.221055    88.944004    90.224287    169.93353  0.078500002 
    6300    788319.19    501.16956   -111.36283    98.243823    88.934002    90.225441    111.36283  0.078750002 
    6320    787359.81    500.72354    340.86196    98.266591    88.846436    90.183552   -340.86196  0.079000002 
    6340    787848.74    498.01719   -306.37427    98.289359    88.797443    90.268428    306.37427  0.079250002 
    6360    788505.92    499.61552   -687.98375    98.312127    88.826998    90.292751    687.98375  0.079500002 
    6380    788443.34    499.00481   -58.671981    98.334895    88.765643    90.327071    58.671981  0.079750002 
    6400    788514.45     499.4263    312.63503    98.357663     88.74804     90.33222   -312.63503  0.080000002 
    6420    789362.14    499.48944   -101.72208    98.380431     88.79398    90.361629    101.72208  0.080250002 
    6440    789945.71     498.5509   -320.93302    98.403199    88.837186    90.363539    320.93302  0.080500002 
    6460    790735.89    496.78759   -616.23788    98.425967    88.930517    90.338098    616.23788  0.080750002 
    6480    790608.36    499.12896    189.81983    98.448735    88.938871    90.294157   -189.81983  0.081000002 
    6500    791492.86    498.43218   -40.938356    98.471503    88.984853    90.327575    40.938356  0.081250002 
    6520    791590.27    499.35187    57.837073    98.494271    88.988652    90.313953   -57.837073  0.081500002 
    6540    790925.15     498.4354   -280.59852    98.517039    88.930783     90.27592    280.59852  0.081750002 
    6560    789756.86    499.04896    15.225089    98.539807    88.891926    90.161138   -15.225089  0.082000002 
    6580    790448.59    498.87608   -455.45814    98.562575    88.938551    90.171965    455.45814  0.082250002 
    6600    790612.99    501.33286    87.162019    98.585343    88.936941    90.171523   -87.162019  0.082500002 
    6620       791203      497.916    -249.7374    98.608111    88.994073    90.160063     249.7374  0.082750002 
    6640    791113.49    501.66179   -491.83533    98.630879    89.020558    90.102237    491.83533  0.083000002 
    6660    790572.75    502.95272   -128.25773    98.653647    88.972149     90.06885    128.25773  0.083250002 
    6680    791015.53     499.2484   -51.340928    98.676415    88.965338    90.105399    51.340928  0.083500002 
    6700       790275    501.72157   -188.73079    98.699183    88.950311    90.015482    188.73079  0.083750002 
    6720    789647.66     501.4466   -135.69988    98.721951    88.907778    89.966302    135.69988  0.084000002 
    6740    790424.56    500.12122   -781.05699    98.744719    88.951857    89.989437    781.05699  0.084250002 
    6760    790374.38    501.43313   -137.27411    98.767487    89.019938    89.894178    137.27411  0.084500002 
    6780    789331.21    501.18432    348.43731    98.790255    88.997995    89.776971   -348.43731  0.084750002 
    6800    789243.67    500.55815    -77.68102    98.813023    89.019566    89.724584     77.68102  0.085000002 
    6820     789335.8    503.53948    14.605106    98.835791    89.054593    89.679099   -14.605106  0.085250002 
    6840    790539.05    499.16759   -598.47741    98.858559    89.079308    89.770206    598.47741  0.085500002 
    6860    790255.73    500.74161   -112.31315    98.881326    89.003059    89.794231    112.31315  0.085750002 
    6880       789210    500.56678   -21.858569    98.904094    88.917655    89.740876    21.858569  0.086000002 
    6900    788749.15    499.38294    27.808377    98.926862    88.861811    89.724183   -27.808377  0.086250002 
    6920    789194.66    500.95863   -298.55467     98.94963    88.804263    89.812367    298.55467  0.086500002 
    6940    789074.29    499.40367     46.63508    98.972398    88.752005    89.830875    -46.63508  0.086750002 
    6960    788933.35     499.7286   -272.41479    98.995166    88.718551    89.828032    272.41479  0.087000002 
    6980     788763.3    500.58494    115.52483    99.017934    88.699192    89.807616   -115.52483  0.087250002 
    7000    789906.51    498.68303   -230.26056    99.040702    88.725257     89.89069    230.26056  0.087500002 
    7020    789854.47    500.25444   -406.59996     99.06347    88.740167    89.849011    406.59996  0.087750002 
    7040    788511.01    499.16144   -46.410959    99.086238    88.702196    89.713965    46.410959  0.088000002 
    7060    789344.88    498.93633   -204.69176    99.109006     88.69172    89.798814    204.69176  0.088250002 
    7080     789908.5    499.30843    -62.63286    99.131774    88.714897    89.818822     62.63286  0.088500002 
    7100    789113.35    499.20544   -131.62331    99.154542    88.647034    89.776479    131.62331  0.088750002 
    7120    789349.56    498.56688   -119.58605     99.17731    88.606016    89.824298    119.58605  0.089000002 
    7140    789726.92    501.11357   -165.82422    99.200078    88.584685     89.86825    165.82422  0.089250002 
    7160    789771.09    499.40996     4.972995    99.222846    88.594774    89.842422    -4.972995  0.089500002 
    7180    790805.63    500.41216   -54.161911    99.245614    88.669877    89.863292    54.161911  0.089750002 
    7200    791253.67    498.73211   -308.07161    99.268382    88.654687    89.908984    308.07161  0.090000002 
    7220    791098.18    503.16679   -306.83509     99.29115    88.629854    89.895885    306.83509  0.090250002 
    7240    792180.92    500.80348   -207.30996    99.313918    88.701564    89.925526    207.30996  0.090500002 
    7260    792548.85    502.04427   -391.69472    99.336686    88.662283    89.986521    391.69472  0.090750002 
    7280    790493.82    503.48382   -147.56389    99.359454    88.522814    89.874001    147.56389  0.091000002 
    7300     790112.3    503.23447    129.79481    99.382222    88.541675    89.790913   -129.79481  0.091250002 
    7320    791193.02    504.52544   -247.28531     99.40499    88.607045    89.826816    247.28531  0.091500002 
    7340    791269.03    502.26965   -311.69163    99.427758    88.610352    89.811523    311.69163  0.091750002 
    7360    791072.22    502.90684    109.64798    99.450526    88.574591    89.804871   -109.64798  0.092000002 
    7380    792026.69    502.33667   -327.91777    99.473294    88.577067    89.890133    327.91777  0.092250002 
    7400    791481.16    501.28504    65.820124    99.496062    88.574871    89.809889   -65.820124  0.092500002 
    7420    791354.56    502.23408    158.12079     99.51883     88.61669    89.732615   -158.12079  0.092750002 
    7440    792038.57     499.5164   -850.99478    99.541598    88.643303    89.762676    850.99478  0.093000002 
    7460    790815.29    501.29324   -322.14196    99.564366    88.482487    89.766398    322.14196  0.093250002 
    7480    790452.75    501.23794    206.25946    99.587134    88.459867    89.727671   -206.25946  0.093500002 
    7500    792300.15    501.74344   -584.14709    99.609902    88.572055    89.802929    584.14709  0.093750002 
    7520    791057.81    500.40411    81.283348     99.63267    88.520306    89.694032   -81.283348  0.094000002 
    7540    790480.21     499.4807    123.32404    99.655438    88.556917    89.571018   -123.32404  0.094250002 
    7560    791214.07    501.43996   -540.77102    99.678206    88.652165    89.537393    540.77102  0.094500002 
    7580    790479.39    501.84805    -682.5211    99.700974    88.589534    89.497053     682.5211  0.094750002 
    7600    789657.19    500.21131    332.43406    99.723742    88.600514    89.372476   -332.43406  0.095000002 
    7620    791332.21    500.65648   -514.29279     99.74651    88.708486    89.432623    514.29279  0.095250002 
    7640    790677.21    500.02722   -251.85975    99.769278    88.714906     89.33174    251.85975  0.095500002 
    7660    789965.27    501.76203   -118.68944    99.792046    88.728986    89.216782    118.68944  0.095750002 
    7680    790249.13    498.42667   -186.90901    99.814814    88.758579    89.198733    186.90901  0.096000002 
    7700    790136.71    500.05492   -265.54401    99.837582    88.732077    89.192337    265.54401  0.096250002 
    7720     789673.5    498.61416   -488.28954     99.86035    88.747084    89.104654    488.28954  0.096500002 
    7740    789609.92      499.532   -369.98524    99.883118    88.748554    89.075695    369.98524  0.096750002 
    7760    790008.37     499.2645   -29.770817    99.905885    88.752613    89.096259    29.770817  0.097000002 
    7780    790556.19    499.19312    280.52962    99.928653     88.83274    89.057326   -280.52962  0.097250002 
    7800    790687.68    500.14665   -134.41264    99.951421    88.856993    89.027542    134.41264  0.097500002 
    7820    791257.29    498.10028   -574.87371    99.974189     88.87627    89.052068    574.87371  0.097750002 
    7840     791458.3    499.85496   -191.76722    99.996957    88.874915    89.055768    191.76722  0.098000002 
    7860    791280.76    499.57567   -98.188762    100.01973    88.838513    89.051998    98.188762  0.098250002 
    7880     792025.1    499.48443    69.338999    100.04249    88.889154    89.064711   -69.338999  0.098500002 
    7900    792003.91    498.47736    68.429419    100.06526    88.910557     89.02063   -68.429419  0.098750002 
    7920    792141.24     499.5248   -240.59152    100.08803    88.950602    88.975738    240.59152  0.099000002 
    7940    792205.95    501.74976   -176.35687     100.1108    88.940657    88.972716    176.35687  0.099250002 
    7960    792359.26    496.49847   -115.42981    100.13357    88.920076    88.990292    115.42981  0.099500002 
    7980    792102.19    500.67412   -23.093424    100.15633    88.873602    88.987707    23.093424  0.099750002 
    8000     792469.7    498.71812   -22.069565     100.1791    88.840857    89.041568    22.069565          0.1 
    8020    792284.72    499.86719   -68.411521    100.20187    88.831851    89.009578    68.411521      0.10025 
    8040    791718.24    504.37123   -18.869899    100.22464    88.816359    88.941243    18.869899       0.1005 
    8060    792623.57     500.7114   -508.10356    100.24741     88.84678    88.992242    508.10356      0.10075 
    8080    793340.61    500.72124   -447.57251    100.27017    88.916653    88.982543    447.57251        0.101 
    8100    792790.74    501.93133    -546.4067    100.29294    88.917339    88.899996     546.4067      0.10125 
    8120     791772.9    502.08493    370.61758    100.31571    88.819553    88.863436   -370.61758       0.1015 
    8140    793071.45     502.8559    218.23356    100.33848    88.879721    88.928738   -218.23356      0.10175 
    8160    793387.08    501.83408    23.030294    100.36125    88.891475    88.932186   -23.030294        0.102 
    8180    793319.12    499.42632   -725.90848    100.38401     88.89382    88.902055    725.90848      0.10225 
    8200     792624.2    501.31362   -358.89437    100.40678    88.860168     88.83767    358.89437       0.1025 
    8220    793175.42     500.2432   -614.75099    100.42955    88.806893    88.932615    614.75099      0.10275 
    8240    793064.56     499.7243     284.3107    100.45232    88.705815     89.00133    -284.3107        0.103 
    8260    793412.04    501.34639    261.58704    100.47508    88.770863    88.954918   -261.58704      0.10325 
    8280    793946.48    498.34341   -103.51455    100.49785    88.806689    88.958769    103.51455       0.1035 
    8300    794624.04    499.03724   -429.91766    100.52062    88.835598    88.985554    429.91766      0.10375 
    8320    794187.91    499.28568    -484.7492    100.54339    88.821203    88.930984     484.7492        0.104 
    8340    794258.26    497.66328   -535.47355    100.56616    88.839199    88.900715    535.47355      0.10425 
    8360    793702.31    500.84891    41.304247    100.58892    88.782291    88.875311   -41.304247       0.1045 
    8380     792940.6    501.01595    55.291299    100.61169     88.73523    88.817004   -55.291299      0.10475 
    8400     792642.7    500.42289    294.32886    100.63446    88.738639     88.76014   -294.32886        0.105 
    8420    792738.41    498.92346   -404.23632    100.65723    88.723983    88.765439    404.23632      0.10525 
    8440    792394.86    500.03372   -107.88055       100.68    88.673553    88.757354    107.88055       0.1055 
    8460    793212.08    498.83332   -779.58937    100.70276    88.677174    88.825177    779.58937      0.10575 
    8480    791957.19    499.83774   -14.928097    100.72553    88.642694    88.699094    14.928097        0.106 
    8500    791414.87    499.03633     128.0239     100.7483    88.655498    88.605525    -128.0239      0.10625 
    8520    792371.69    502.64283   -109.54524    100.77107    88.733678    88.614461    109.54524       0.1065 
    8540    793210.93    500.26988    6.0888065    100.79384    88.770839    88.651153   -6.0888065      0.10675 
    8560    793063.24    499.78222   -42.733015     100.8166    88.781675    88.603814    42.733015        0.107 
    8580    793341.33    500.08165   -605.72316    100.83937    88.792493    88.604075    605.72316      0.10725 
    8600    793503.83    499.62104   -503.76077    100.86214     88.75437    88.640276    503.76077       0.1075 
    8620    792994.02    498.78197   -45.534492    100.88491    88.725166    88.592486    45.534492      0.10775 
    8640    793052.81    501.91728     262.1278    100.90768    88.754091    88.550194    -262.1278        0.108 
    8660    794350.27    502.52663   -139.07785    100.93044    88.785217    88.643971    139.07785      0.10825 
    8680    794680.59    500.99786    -270.3398    100.95321    88.806925    88.639159     270.3398       0.1085 
    8700    794134.23    501.05449   -305.82965    100.97598     88.79941    88.565741    305.82965      0.10875 
    8720    794744.42    498.69166   -431.98233    100.99875    88.791974    88.621233    431.98233        0.109 
    8740    795205.31    499.03245    -94.07592    101.02152    88.779834    88.664763     94.07592      0.10925 
    8760    795141.49    499.32658    156.53336    101.04428    88.792799    88.624728   -156.53336       0.1095 
    8780       795531    499.71543    238.97093    101.06705    88.835412    88.605645   -238.97093      0.10975 
    8800    795833.64    498.56025   -648.94815    101.08982    88.776679    88.678017    648.94815         0.11 
    8820    795135.62    497.40205   -489.68284    101.11259    88.622311    88.734583    489.68284      0.11025 
    8840    796019.85    500.42743   -206.19149    101.13536    88.639971    88.795566    206.19149       0.1105 
    8860    796155.73    499.43292   -226.03306    101.15812    88.617744    88.813005    226.03306      0.11075 
    8880    794893.17    497.37032    534.52135    101.18089    88.484979    88.785227   -534.52135        0.111 
    8900    796018.55     499.5212   -374.49327    101.20366    88.591996    88.783544    374.49327      0.11125 
    8920    796818.87    497.87152   -432.57965    101.22643    88.641681    88.803016    432.57965       0.1115 
    8940    796134.46    499.25442   -143.96068     101.2492    88.584236    88.764312    143.96068      0.11175 
    8960     795338.8    498.79276   -41.950999    101.27196    88.568306    88.671611    41.950999        0.112 
    8980     795482.7    498.18145   -267.81319    101.29473    88.562433      88.6736    267.81319      0.11225 
    9000    795278.22    499.16391   -311.75008     101.3175    88.475318    88.718153    311.75008       0.1125 
    9020       794995     499.9669   -391.27116    101.34027    88.469993    88.671969    391.27116      0.11275 
    9040    794575.16    497.29591    178.56948    101.36304    88.471385     88.60384   -178.56948        0.113 
    9060    794631.69    499.51693    308.39304     101.3858    88.388563    88.673257   -308.39304      0.11325 
    9080    796019.97    497.61072    -383.1842    101.40857     88.42935     88.76727     383.1842       0.1135 
    9100    795549.72    498.64481   -644.60515    101.43134      88.3777    88.746753    644.60515      0.11375 
    9120    794791.26    500.86728   -357.33414    101.45411    88.350483    88.669552    357.33414        0.114 
    9140    794459.55    499.74088    25.141612    101.47688    88.253776     88.70976   -25.141612      0.11425 
    9160    794319.47    500.86325    108.51966    101.49964    88.194525    88.733797   -108.51966       0.1145 
    9180    794332.15    502.21106    325.32866    101.52241    88.186519    88.723367   -325.32866      0.11475 
    9200    795600.19    501.77566    -552.8422    101.54518    88.259531     88.77158     552.8422        0.115 
    9220    795069.91    501.96817   -243.99277    101.56795    88.209012    88.743322    243.99277      0.11525 
    9240    794768.41    502.02652    162.18033    101.59072    88.195774    88.703101   -162.18033       0.1155 
    9260    795049.24    500.57209   -12.161629    101.61348    88.242924    88.667159    12.161629      0.11575 
    9280    794498.15    502.47459   -13.371911    101.63625    88.179338    88.649729    13.371911        0.116 
    9300    794677.21      500.936   -336.13982    101.65902    88.207352    88.621695    336.13982      0.11625 
    9320    795278.55    499.77579   -191.46337    101.68179    88.279653    88.596278    191.46337       0.1165 
    9340    796499.58    498.97384   -479.81555    101.70456      88.2931     88.69893    479.81555      0.11675 
    9360    796965.19    499.84894   -5.3755123    101.72732    88.286923    88.737124    5.3755123        0.117 
    9380    797228.04    499.21237    71.704786    101.75009    88.296186    88.737218   -71.704786      0.11725 
    9400    797894.93    500.42682    -403.4184    101.77286     88.30048    88.787262     403.4184       0.1175 
    9420    798478.87    499.30889   -445.94943    101.79563    88.281327    88.851641    445.94943      0.11775 
    9440    798792.18    498.59376   -306.05918     101.8184    88.293751    88.854124    306.05918        0.118 
    9460    798452.91    498.02442    365.13547    101.84116    88.256018    88.834492   -365.13547      0.11825 
    9480    799172.83    500.79942    13.481859    101.86393    88.273704    88.876905   -13.481859       0.1185 
    9500    799661.93    497.84959   -23.146844     101.8867    88.265171    88.920022    23.146844      0.11875 
    9520    800297.33    500.82029   -71.384649    101.90947    88.296575    88.939151    71.384649        0.119 
    9540    799452.16    497.78433   -791.06186    101.93224    88.309821    88.812056    791.06186      0.11925 
    9560    797617.67    499.86391    295.28693      101.955    88.216785    88.681901   -295.28693       0.1195 
    9580    798362.41    499.04865   -8.3178561    101.97777    88.154431    88.807658    8.3178561      0.11975 
    9600    798947.58    499.37987   -477.11237    102.00054    88.117619    88.890033    477.11237         0.12 
    9620     798356.8    501.03555    88.183475    102.02331    88.027941    88.894949   -88.183475      0.12025 
    9640    798823.17    497.99767    107.53326    102.04608    88.037954    88.916919   -107.53326       0.1205 
    9660    799596.07    500.60032   -412.23294    102.06884      88.0909    88.929615    412.23294      0.12075 
    9680    798924.67    500.91343    130.56831    102.09161      88.0076    88.919209   -130.56831        0.121 
    9700    798437.11    499.72579   -385.85284    102.11438    87.958002    88.895229    385.85284      0.12125 
    9720    797754.52      501.948    83.841725    102.13715    87.926974    88.830769   -83.841725       0.1215 
    9740    798642.05    498.82671   -538.51903    102.15992     87.99789    88.838127    538.51903      0.12175 
    9760    799057.16    502.74212    5.4751583    102.18268    88.053226     88.80865   -5.4751583        0.122 
    9780    798332.29    501.22863    52.990374    102.20545    88.018617    88.743202   -52.990374      0.12225 
    9800    797430.34    501.50033    391.48834    102.22822    87.975994    88.666136   -391.48834       0.1225 
    9820    798392.42    502.15981   -514.15945    102.25099    88.027763    88.701146    514.15945      0.12275 
    9840    798926.88    500.76598   -520.73564    102.27376    88.068517    88.699699    520.73564        0.123 
    9860    799406.06    503.53088   -303.41647    102.29652    88.123833    88.677448    303.41647      0.12325 
    9880     800252.9    501.16691   -336.03557    102.31929    88.166792    88.708391    336.03557       0.1235 
    9900    799770.27    502.92702    203.70995    102.34206    88.153938     88.64809   -203.70995      0.12375 
    9920    799848.68    502.03688    120.55658    102.36483    88.201251    88.589516   -120.55658        0.124 
    9940    800647.33      500.889   -360.90258     102.3876    88.231858    88.627499    360.90258      0.12425 
    9960    800205.06    501.19903   -15.073844    102.41036    88.192578    88.598292    15.073844       0.1245 
    9980    800263.86    498.13103   -82.876657    102.43313    88.158415    88.619437    82.876657      0.12475 
   10000     800455.9    499.47417   -444.39976     102.4559      88.1583    88.621121    444.39976        0.125 
   10020    800118.02    500.99599    65.759351    102.47867    88.179391    88.542848   -65.759351      0.12525 
   10040    800378.44    498.13742    -347.4814    102.50143    88.240591    88.490578     347.4814       0.1255 
   10060    799665.03     499.4347   -4.9107146     102.5242    88.227152    88.405532    4.9107146      0.12575 
   10080    799363.36      499.829   -70.224159    102.54697      88.2407    88.338995    70.224159        0.126 
   10100    799735.62    500.36515   -472.76502    102.56974    88.216208    88.385049    472.76502      0.12625 
   10120    800779.51    499.91652   -460.79411    102.59251     88.23966     88.45726    460.79411       0.1265 
   10140    800186.04    499.11859    159.61437    102.61527    88.186954    88.424908   -159.61437      0.12675 
   10160    800233.81     500.8925   -41.345436    102.63804    88.154395    88.443224    41.345436        0.127 
   10180     800820.6    498.27828   -75.308694    102.66081     88.08863    88.554512    75.308694      0.12725 
   10200    801675.16    498.63991   -558.67853    102.68358    88.120719    88.597079    558.67853       0.1275 
   10220    801551.21    500.01072    -472.8918    102.70635    88.118617    88.565855     472.8918      0.12775 
   10240    800847.63    500.28052    435.03446    102.72911    88.013645    88.574017   -435.03446        0.128 
   10260    801084.96    500.07796   -13.202851    102.75188    87.990695    88.603737    13.202851      0.12825 
   10280    801024.72    499.52422    -322.4112    102.77465    88.032031    88.535855     322.4112       0.1285 
   10300    800849.89     500.6444   -371.41418    102.79742    87.961268     88.56812    371.41418      0.12875 
   10320    800694.73    500.57689   -147.22722    102.82019    87.892344    88.600778    147.22722        0.129 
   10340    800259.21    498.95889   -183.09831    102.84295    87.871403     88.55408    183.09831      0.12925 
   10360    799430.22     502.5554    152.99431    102.86572    87.821921    88.492598   -152.99431       0.1295 
   10380    800905.17    501.74542   -650.23596    102.88849    87.861247    88.596576    650.23596      0.12975 
   10400    800231.44    501.05443   -287.66433    102.91126    87.817891    88.546157    287.66433         0.13 
   10420     799359.8    500.88727    86.572929    102.93403    87.790908    88.457325   -86.572929      0.13025 
   10440       799730    502.96108   -338.62293    102.95679    87.829003    88.440343    338.62293       0.1305 
   10460    798998.59    500.38191    28.855893    102.97956    87.749903    88.419555   -28.855893      0.13075 
   10480    797694.97    501.22779    636.66882    103.00233    87.746089    88.259616   -636.66882        0.131 
   10500    798846.13    500.43335   -697.72461     103.0251     87.88474    88.228038    697.72461      0.13125 
   10520    798436.72    501.70677   -230.64602    103.04787    87.816509    88.231838    230.64602       0.1315 
   10540    798332.23    500.81508   -485.12883    103.07063    87.819578    88.197722    485.12883      0.13175 
   10560    798119.25    500.39628   -231.79011     103.0934    87.817485     88.15682    231.79011        0.132 
   10580    797663.12    503.11402    151.24937    103.11617    87.758313    88.146378   -151.24937      0.13225 
   10600    796855.22    501.91445    222.32357    103.13894    87.713045    88.083097   -222.32357       0.1325 
   10620       796930    500.59139   -395.73886    103.16171     87.78997    87.994749    395.73886      0.13275 
   10640    796994.21    500.44658   -729.61035    103.18447    87.784234     87.98817    729.61035        0.133 
   10660    796498.17    501.17123   -191.33286    103.20724    87.725932    87.972436    191.33286      0.13325 
   10680    796749.06    501.43755   -220.93986    103.23001    87.760438    87.946145    220.93986       0.1335 
   10700    796470.95    502.26025    581.66901    103.25278    87.693648    87.963005   -581.66901      0.13375 
   10720    797622.73    499.66182    93.361052    103.27555    87.694544    88.069889   -93.361052        0.134 
   10740    798689.52    501.40285   -670.98718    103.29831    87.756398    88.106097    670.98718      0.13425 
   10760    798675.73    499.28219   -385.35114    103.32108    87.715438    88.126294    385.35114       0.1345 
   10780     798364.8     498.2862   -124.19016    103.34385    87.645614    88.142742    124.19016      0.13475 
   10800    798737.45    500.99798    316.62873    103.36662    87.663032    88.146942   -316.62873        0.135 
   10820    799118.18    499.98929    205.04583    103.38939    87.665013    88.167546   -205.04583      0.13525 
   10840    799878.17    498.94375   -455.64778    103.41215    87.710896    88.185811    455.64778       0.1355 
   10860    799506.16     499.6145   -613.43632    103.43492    87.683347    88.153082    613.43632      0.13575 
   10880    799634.95    499.09613   -384.21675    103.45769    87.703437    88.127687    384.21675        0.136 
   10900    799878.71    500.08579    268.07157    103.48046    87.746925    88.091476   -268.07157      0.13625 
   10920    800216.48    496.92532   -259.28989    103.50323    87.775529    88.080577    259.28989       0.1365 
   10940    800054.97    500.96726    45.100188    103.52599    87.731099     88.08802   -45.100188      0.13675 
   10960     800805.5    496.55065    -533.5538    103.54876    87.766623    88.115589     533.5538        0.137 
   10980    800978.04    499.22605   -270.54011    103.57153    87.718462    88.163578    270.54011      0.13725 
   11000    800850.42     499.0686    -54.32007     103.5943    87.709559    88.139104     54.32007       0.1375 
   11020    800754.87    498.43294    22.435657    103.61707    87.708159    88.110629   -22.435657      0.13775 
   11040     800977.8    500.71611    -296.3715    103.63983    87.725068    88.098813     296.3715        0.138 
   11060    801834.88    498.80709   -178.78294     103.6626    87.757811    88.140814    178.78294      0.13825 
   11080    801488.58    501.33616   -469.28099    103.68537    87.703405    88.138042    469.28099       0.1385 
   11100    800038.52    499.00073    167.12075    103.70814    87.546354     88.11706   -167.12075      0.13875 
   11120    801022.87     502.4578   -698.41115    103.73091    87.574765    88.177497    698.41115        0.139 
   11140    800631.76    502.38065   -30.031202    103.75367     87.47033    88.220307    30.031202      0.13925 
   11160    800967.33    502.33668   -133.73824    103.77644    87.402489     88.30641    133.73824       0.1395 
   11180    801592.14    503.31114   -288.75826    103.79921    87.380167    88.378481    288.75826      0.13975 
   11200     801015.7    503.50682   -8.5607808    103.82198    87.334212     88.34202    8.5607808         0.14 
   11220    801434.21    502.36107   -430.99346    103.84475    87.334797    88.368205    430.99346      0.14025 
   11240    801810.58    500.85097   -41.871898    103.86751    87.293483    88.432158    41.871898       0.1405 
   11260    801814.17    501.60698   -384.70896    103.89028    87.194524    88.513516    384.70896      0.14075 
   11280    801399.08    500.46144   -20.922767    103.91305    87.120452     88.52351    20.922767        0.141 
   11300    801526.78    502.88592   -128.75296    103.93582    87.094039    88.545068    128.75296      0.14125 
   11320    802134.43    500.06156   -308.08025    103.95859    87.085528    88.601446    308.08025       0.1415 
   11340    801319.72    499.35854    115.43916    103.98135    87.079829    88.497865   -115.43916      0.14175 
   11360     800934.2    501.07528   -404.63652    104.00412    87.064987    88.451001    404.63652        0.142 
   11380    800931.16    499.75198   -100.52885    104.02689    87.001444    88.495893    100.52885      0.14225 
   11400    801385.48    501.42758   -195.90924    104.04966    86.986368    88.542059    195.90924       0.1425 
   11420    801742.77    498.83817   -474.36081    104.07243     87.04629     88.50119    474.36081      0.14275 
   11440    800691.77     501.9148    175.57275    104.09519     86.97228    88.441038   -175.57275        0.143 
   11460    800805.94    499.62412   -103.58018    104.11796    86.967728    88.438935    103.58018      0.14325 
   11480    801506.68    500.08814   -237.39227    104.14073     87.00279    88.461307    237.39227       0.1435 
   11500       801777    499.95278   -438.99553     104.1635    87.087871    88.385367    438.99553      0.14375 
   11520    801679.58     500.1764    67.083542    104.18627    87.055088    88.388587   -67.083542        0.144 
   11540    803033.49     500.8231    76.539144    104.20903    87.132857    88.439511   -76.539144      0.14425 
   11560    804392.06    499.82785   -531.81637     104.2318    87.221397    88.479874    531.81637       0.1445 
   11580    804134.73    499.95549   -605.77613    104.25457    87.184331    88.469848    605.77613      0.14475 
   11600       803572    499.60605   -668.38484    104.27734     87.18589    88.387054    668.38484        0.145 
   11620    802636.66    500.13787    108.28024    104.30011     87.21436    88.236088   -108.28024      0.14525 
   11640    803360.89    499.15107    576.63176    104.32287    87.261886    88.248341   -576.63176       0.1455 
   11660    803952.74    500.11524     16.67533    104.34564     87.28199    88.273749    -16.67533      0.14575 
   11680    803312.04    495.68357   -142.79211    104.36841    87.277594      88.1886    142.79211        0.146 
   11700    803851.23      499.429   -873.39105    104.39118    87.322276      88.1834    873.39105      0.14625 
   11720    803976.87    498.79839   -140.17391    104.41395    87.343049    88.156979    140.17391       0.1465 
   11740    804150.53    499.11528   -259.63665    104.43671    87.381546     88.11796    259.63665      0.14675 
   11760    804052.77    499.95681    12.031965    104.45948    87.373947    88.095705   -12.031965        0.147 
   11780     803886.7     498.3808   -4.6992068    104.48225    87.307221    88.125616    4.6992068      0.14725 
   11800    803538.41    499.45302    44.502198    104.50502    87.307387    88.068076   -44.502198       0.1475 
   11820    804278.47    499.24262   -336.19125    104.52778      87.4357    88.000655    336.19125      0.14775 
   11840    804701.24    499.36556   -244.99554    104.55055     87.46949    87.993732    244.99554        0.148 
   11860    803966.32    499.86246    -202.9977    104.57332    87.390445     87.97373     202.9977      0.14825 
   11880    803259.66    496.99619   -261.19175    104.59609    87.364468      87.9034    261.19175       0.1485 
   11900     804642.7    499.55425   -450.42715    104.61886    87.444105    87.955412    450.42715      0.14875 
   11920    804459.04    499.49671    186.03189    104.64162    87.397613    87.962972   -186.03189        0.149 
   11940    804466.99    497.87828    156.91534    104.66439    87.295088    88.047994   -156.91534      0.14925 
   11960    806289.76    501.00574   -391.13185    104.68716    87.308592    88.214654    391.13185       0.1495 
   11980    806754.23    500.05041   -554.63645    104.70993    87.279075    88.276124    554.63645      0.14975 
   12000    807068.64     501.9487   -434.05277     104.7327    87.268031    88.302501    434.05277         0.15 
   12020     808759.2    499.01482   -294.36069    104.75546    87.298518    88.437341    294.36069      0.15025 
   12040    808411.55    502.37504    -64.81838    104.77823    87.291188    88.387538     64.81838       0.1505 
   12060    807439.79    501.12896    720.79946      104.801    87.216089    88.338112   -720.79946      0.15075 
   12080    808997.05    502.35541   -176.06947    104.82377    87.204427    88.501093    176.06947        0.151 
   12100    809486.72    501.30146    -753.9586    104.84654    87.185771    88.554376     753.9586      0.15125 
   12120    808620.06    498.86863   -104.55999     104.8693    87.134722    88.492177    104.55999       0.1515 
   12140    809163.16    501.94666    -446.1828    104.89207    87.199942    88.466173     446.1828      0.15175 
   12160    808359.15    499.81846   -70.520024    104.91484    87.192385    88.366748    70.520024        0.152 
   12180    807866.84    500.54505    328.58755    104.93761    87.172877    88.313529   -328.58755      0.15225 
   12200    808268.46    501.05951    56.909478    104.96038    87.183706    88.327293   -56.909478       0.1525 
   12220    807744.22    499.18748   -108.65661    104.98314    87.144022    88.291049    108.65661      0.15275 
   12240    807612.26    499.09271   -454.36676    105.00591    87.139243    88.262327    454.36676        0.153 
   12260    808085.69    500.66351   -659.41084    105.02868    87.186374    88.247191    659.41084      0.15325 
   12280    808153.75    497.70843   -436.95045    105.05145    87.162569    88.259594    436.95045       0.1535 
   12300    807297.55    500.47488    26.858745    105.07422    87.144715    88.165042   -26.858745      0.15375 
   12320       807099    498.65784    80.716382    105.09698    87.190383    88.078106   -80.716382        0.154 
   12340    806364.22    499.80211       516.53    105.11975    87.128102     88.04175      -516.53      0.15425 
   12360    806727.47    499.13567   -385.32481    105.14252    87.154784    88.035377    385.32481       0.1545 
   12380    806566.69    498.85223   -674.35718    105.16529    87.109113    88.044914    674.35718      0.15475 
   12400    806389.24    498.08012   -610.42733    105.18806    87.103971    88.011686    610.42733        0.155 
   12420    805490.85     500.2478   -116.77113    105.21082    87.090384     87.90832    116.77113      0.15525 
   12440    805218.58    502.00161    301.59929    105.23359    87.070431    87.879727   -301.59929       0.1555 
   12460    806050.46    500.11428   -34.880551    105.25636     87.12801    87.893364    34.880551      0.15575 
   12480    805572.13    499.62045   -306.89158    105.27913    87.108871    87.841504    306.89158        0.156 
   12500    805185.07    500.26027    -612.0775     105.3019    87.083521    87.805868     612.0775      0.15625 
   12520    805950.56    498.10108   -118.21487    105.32466    87.132474    87.820978    118.21487       0.1565 
   12540    807687.32    500.92841   -127.70807    105.34743    87.263694    87.858891    127.70807      0.15675 
   12560    806812.87    499.61187    162.46472     105.3702    87.257214    87.751322   -162.46472        0.157 
   12580    807224.06    498.48391   -296.41792    105.39297    87.317268    87.716707    296.41792      0.15725 
   12600    808389.47    500.42896   -316.24848    105.41574    87.362652     87.77875    316.24848       0.1575 
   12620    808835.54    499.87894   -445.59865     105.4385    87.372641    87.798182    445.59865      0.15775 
   12640    808645.55    501.69237    40.346941    105.46127      87.3527    87.778644   -40.346941        0.158 
   12660    808698.08     500.5379   -52.681173    105.48404    87.285179     87.83329    52.681173      0.15825 
   12680    808280.17    503.07337    142.93576    105.50681    87.273473    87.780728   -142.93576       0.1585 
   12700    808957.82    499.00191   -200.91662    105.52958    87.304705    87.803946    200.91662      0.15875 
   12720    809504.13    502.98875   -927.08611    105.55234    87.259531    87.889767    927.08611        0.159 
   12740    807519.11    501.82098     23.25622    105.57511    87.083055    87.832977    -23.25622      0.15925 
   12760     807780.9    500.68912    197.83453    105.59788    87.101008    87.824401   -197.83453       0.1595 
   12780    808615.74    503.23759   -260.31842    105.62065    87.158564    87.838173    260.31842      0.15975 
   12800    807450.52    502.97043    89.714976    105.64342    87.078463    87.773361   -89.714976         0.16 
   12820    807438.05    504.17461    -383.6826    105.66618    87.088809    87.742669     383.6826      0.16025 
   12840    807489.06    502.50562   -197.77392    105.68895    87.116484    87.701439    197.77392       0.1605 
   12860    807121.61    502.76747    71.113114    105.71172    87.094988    87.664281   -71.113114      0.16075 
   12880    808019.59    499.88019   -250.27375    105.73449    87.085637    87.752337    250.27375        0.161 
   12900    808138.63    502.40439   -66.100796    105.75726    87.076126    87.755954    66.100796      0.16125 
   12920    807499.82    499.05829   -36.156329    105.78002    87.036328      87.7078    36.156329       0.1615 
   12940    808082.38    499.71334     -438.312    105.80279    87.041624    87.746848      438.312      0.16175 
   12960    808594.74    500.05882   -107.79711    105.82556    87.074711    87.750237    107.79711        0.162 
   12980    809232.87     498.3828   -323.67467    105.84833    87.144245    87.730541    323.67467      0.16225 
   13000    809230.05    500.10588   -380.63244     105.8711    87.121323    87.734445    380.63244       0.1625 
   13020    808940.14    498.90362   -28.452012    105.89386    87.060917    87.744996    28.452012      0.16275 
   13040    809237.28    499.70683     101.4619    105.91663    87.116602    87.702262    -101.4619        0.163 
   13060    809656.72    501.21536   -33.958104     105.9394    87.100481    87.745099    33.958104      0.16325 
[...]
   76740    880582.29    499.16228   -235.38809    178.43264    69.569812    70.937326    235.38809      0.95925 
   76760    881612.43    499.29323   -653.74765    178.45541    69.563485    71.017709    653.74765       0.9595 
   76780    880663.57    499.33006   -244.18544    178.47818    69.533673    70.962636    244.18544      0.95975 
   76800    879573.58    498.36598   -212.91582    178.50094    69.503141    70.896897    212.91582         0.96 
   76820    878741.16    500.30486    46.984509    178.52371    69.420167    70.905416   -46.984509      0.96025 
   76840    880077.85    499.49376   -204.46257    178.54648    69.393411    71.031594    204.46257       0.9605 
   76860    880430.17    502.31938    58.743781    178.56925    69.356348    71.088939   -58.743781      0.96075 
   76880    880035.54      499.138   -68.529015    178.59202     69.32601    71.079108    68.529015        0.961 
   76900    879531.43    498.85548   -415.10844    178.61478    69.306911     71.04891    415.10844      0.96125 
   76920    880256.35      502.508   -494.69588    178.63755     69.35155    71.052643    494.69588       0.9615 
   76940     880523.6    503.34447   -80.599247    178.66032    69.369119    71.047159    80.599247      0.96175 
   76960    880354.92    502.00307     236.7506    178.68309    69.396569    70.996403    -236.7506        0.962 
   76980    881514.24    504.04399   -245.03104    178.70586    69.470249    71.005452    245.03104      0.96225 
   77000    881606.51    502.00338   -349.01289    178.72862    69.486938    70.986785    349.01289       0.9625 
   77020    881676.86    503.61588    -153.4619    178.75139     69.49741     70.97271     153.4619      0.96275 
   77040    882346.09     502.3268   -67.703601    178.77416    69.579514    70.933735    67.703601        0.963 
   77060     882655.5    503.28298   -406.57379    178.79693    69.602263    70.926384    406.57379      0.96325 
   77080    881457.02    502.71282    83.497898     178.8197    69.541022     70.88343   -83.497898       0.9635 
   77100    882452.51    501.41088   -354.47225    178.84246    69.607606    70.886576    354.47225      0.96375 
   77120    882227.78    502.05988   -20.524166    178.86523     69.61891    70.847998    20.524166        0.964 
   77140    881910.85    501.26517   -116.87979      178.888    69.567755    70.865603    116.87979      0.96425 
   77160    882942.63    500.96345   -310.28532    178.91077    69.599499    70.907127    310.28532       0.9645 
   77180    882902.18    499.32036   -563.90467    178.93354    69.592019    70.902478    563.90467      0.96475 
   77200     881912.5    500.74733    11.344311     178.9563      69.5595    70.847095   -11.344311        0.965 
   77220    882774.74    500.51497   -185.89408    178.97907    69.565825    70.900893    185.89408      0.96525 
   77240    881823.07    498.49961    115.33098    179.00184    69.497632    70.884936   -115.33098       0.9655 
   77260    880403.84    498.46332   -27.422212    179.02461    69.391738    70.869837    27.422212      0.96575 
   77280    881784.91    499.56158   -876.05588    179.04738    69.407689    70.955672    876.05588        0.966 
   77300    881514.22    499.36516    11.587652    179.07014    69.403186    70.929473   -11.587652      0.96625 
   77320    881034.69    499.02349    231.19716    179.09291    69.405403    70.879612   -231.19716       0.9665 
   77340    881083.38    499.61791   -14.895083    179.11568    69.392556    70.887641    14.895083      0.96675 
   77360    879265.16    500.28812    179.71371    179.13845    69.307146    70.819531   -179.71371        0.967 
   77380    878876.01    499.63051   -485.80816    179.16122    69.284352    70.802477    485.80816      0.96725 
   77400     879484.1    499.60844   -164.60785    179.18398    69.263056    70.864244    164.60785       0.9675 
   77420     879528.8    499.20681   -332.37055    179.20675    69.278125    70.843428    332.37055      0.96775 
   77440    879440.25    497.98745    338.54613    179.22952    69.328755    70.775573   -338.54613        0.968 
   77460    880567.87    499.20187   -157.22215    179.25229    69.354722    70.830791    157.22215      0.96825 
   77480    880729.36    498.82482    -128.8986    179.27506    69.349253     70.84037     128.8986       0.9685 
   77500    880778.45    502.40118    -323.1682    179.29782    69.346753    70.837876     323.1682      0.96875 
   77520    880742.48    497.44269   -149.06222    179.32059    69.320178    70.853142    149.06222        0.969 
   77540    880680.72     500.4818    26.648186    179.34336    69.291477    70.868521   -26.648186      0.96925 
   77560    880769.77    497.95765   -62.537916    179.36613    69.280116    70.878311    62.537916       0.9695 
   77580    881008.69    499.56417   -52.767231     179.3889    69.257206     70.91199    52.767231      0.96975 
   77600     880854.4    498.74493   -128.23156    179.41166    69.225894    70.922638    128.23156         0.97 
   77620    880146.72    497.74172   -236.59553    179.43443    69.176016    70.907757    236.59553      0.97025 
   77640    880874.09    499.58133    -3.994843     179.4572    69.158231      70.9756     3.994843       0.9705 
   77660    882093.14    499.63781   -251.15365    179.47997    69.183912    71.038429    251.15365      0.97075 
   77680     881667.6    500.00758   -139.29378    179.50273    69.169687    71.009753    139.29378        0.971 
   77700    880837.16    500.22873    306.19626     179.5255    69.107702    70.997495   -306.19626      0.97125 
   77720     880569.8    500.80387   -365.60994    179.54827    69.057161    71.018883    365.60994       0.9715 
   77740    879498.87     499.8264   -116.59687    179.57104    68.957148    71.026383    116.59687      0.97175 
   77760    879360.08    501.03107   -37.048311    179.59381    68.873194    71.092725    37.048311        0.972 
   77780    879622.65    498.49361   -164.44091    179.61657    68.908256    71.068759    164.44091      0.97225 
   77800    878264.68    499.51939   -142.73185    179.63934     68.88261    70.976465    142.73185       0.9725 
   77820    877058.17    499.34115    215.66237    179.66211    68.839065    70.914809   -215.66237      0.97275 
   77840    877386.15    500.59784   -164.57229    179.68488     68.82777    70.943979    164.57229        0.973 
   77860    876847.33    500.25112    9.7518162    179.70765    68.784771    70.935745   -9.7518162      0.97325 
   77880    877312.98    502.11514   -278.37687    179.73041     68.79813    70.950644    278.37687       0.9735 
   77900    878797.98      501.604   -269.46801    179.75318    68.834849    71.023832    269.46801      0.97375 
   77920    879291.16    500.75612   -91.244258    179.77595    68.852251    71.036732    91.244258        0.974 
   77940    879032.45    502.09341    279.22301    179.79872    68.852856    71.006214   -279.22301      0.97425 
   77960     880334.6    501.30759   -501.46238    179.82149    68.921295     71.03179    501.46238       0.9745 
   77980    880406.98    502.25476   -252.06432    179.84425    68.930975    71.018662    252.06432      0.97475 
   78000    880309.04    500.98587   -153.68799    179.86702    68.907739    71.025716    153.68799        0.975 
   78020    880695.13    501.03366   -180.98863    179.88979    68.919401     71.03585    180.98863      0.97525 
   78040    880504.86    498.30133   -46.501027    179.91256    68.950757    70.979223    46.501027       0.9755 
   78060    881129.59    500.11796   -266.72252    179.93533    69.043698    70.924994    266.72252      0.97575 
   78080    880695.35    501.43127   -475.72341    179.95809    69.050189    70.874408    475.72341        0.976 
   78100    879470.56    499.21146   -162.32482    179.98086    69.050569      70.7665    162.32482      0.97625 
   78120    879388.09    499.41846    310.49474    180.00363    69.086112    70.714514   -310.49474       0.9765 
   78140    880144.23    499.86702    -294.6094     180.0264    69.109009    70.742921     294.6094      0.97675 
   78160    878549.71    499.30335   -174.86061    180.04917    69.014644     70.70237    174.86061        0.977 
   78180    878497.35    500.97189   -333.76126    180.07193    69.039499    70.663768    333.76126      0.97725 
   78200    878922.32    498.64137   -101.36999     180.0947    69.090239    70.637101    101.36999       0.9775 
   78220    878318.26    500.93319    51.517266    180.11747    69.059453    70.611094   -51.517266      0.97775 
   78240    877980.39    500.81197    57.887748    180.14024    69.075788    70.558321   -57.887748        0.978 
   78260    879256.79    497.28588   -338.90524    180.16301    69.153137    70.572942    338.90524      0.97825 
   78280    878943.84    500.85093    -136.3209    180.18577    69.146189    70.545998     136.3209       0.9785 
   78300    877796.43    497.92387   -326.72577    180.20854    69.090368    70.501918    326.72577      0.97875 
   78320    876877.63    498.73423   -206.00865    180.23131      69.0484    70.462027    206.00865        0.979 
   78340    876497.66    499.87232   -268.46724    180.25408    68.998181    70.473853    268.46724      0.97925 
   78360    875940.91    499.86057   -178.09076    180.27685    68.972387    70.446529    178.09076       0.9795 
   78380     875022.2    500.98077   -24.058586    180.29961    68.922053    70.415144    24.058586      0.97975 
   78400    874150.09    500.77327   -209.07228    180.32238    68.855666    70.403895    209.07228         0.98 
   78420    873666.31    502.44586    11.088975    180.34515    68.837412    70.374705   -11.088975      0.98025 
   78440    874297.43    503.24339    -317.5898    180.36792    68.876815    70.376368     317.5898       0.9805 
   78460    874217.51    501.50798   -40.066709    180.39069    68.849092    70.389386    40.066709      0.98075 
   78480    874099.44    502.16543   -269.87157    180.41345    68.806775    70.414276    269.87157        0.981 
   78500    875101.01    503.41549   -45.047095    180.43622    68.841536    70.450472    45.047095      0.98125 
   78520    876697.18    501.32704    38.263071    180.45899     68.86976    70.541147   -38.263071       0.9815 
   78540     876899.7    503.17807    78.814804    180.48176     68.84736    70.571495   -78.814804      0.98175 
   78560    876936.31    501.77948   -360.15181    180.50453    68.832217    70.581064    360.15181        0.982 
   78580    876962.03    501.33232   -102.72276    180.52729    68.806282    70.600833    102.72276      0.98225 
   78600    877922.37    503.76261   -260.37314    180.55006     68.84264    70.631911    260.37314       0.9825 
   78620     878618.7    500.21434   -261.83707    180.57283    68.896298    70.623974    261.83707      0.98275 
   78640    878074.19    502.01152    37.148272     180.5956    68.877645     70.59042   -37.148272        0.983 
   78660    878412.74    499.88602   -36.886568    180.61837    68.893556    70.592427    36.886568      0.98325 
   78680    879841.35     499.3151   -384.76644    180.64113    68.981014    70.608688    384.76644       0.9835 
   78700    878940.77    499.29028    205.27775     180.6639    68.966219    70.542656   -205.27775      0.98375 
   78720    879121.84    500.09655   -246.66168    180.68667    68.952581    70.562252    246.66168        0.984 
   78740    878833.94    497.87855    109.90345    180.70944    68.944539    70.538483   -109.90345      0.98425 
   78760    879414.89    498.79595   -440.86424    180.73221    68.948273    70.572398    440.86424       0.9845 
   78780    879660.17     498.6056   -178.05081    180.75497    68.920875    70.611249    178.05081      0.98475 
   78800    879746.65    499.32855   -288.57958    180.77774    68.906216    70.624317    288.57958        0.985 
   78820    878930.26    500.23637   -51.766345    180.80051    68.843327    70.614341    51.766345      0.98525 
   78840    879243.56    498.28178   -339.17444    180.82328    68.846699    70.627159    339.17444       0.9855 
   78860    879021.39    502.14383   -107.38639    180.84605    68.910646    70.534908    107.38639      0.98575 
   78880    877776.35    502.49583    429.65355    180.86881    68.861397    70.476505   -429.65355        0.986 
   78900    877735.14    500.95838    179.61964    180.89158    68.870194    70.455325   -179.61964      0.98625 
   78920    877673.15    501.07482   -13.070653    180.91435     68.91079    70.399985    13.070653       0.9865 
   78940    876985.37    500.47369   -392.14156    180.93712    68.896013    70.351051    392.14156      0.98675 
   78960    877681.78    498.87562   -261.49619    180.95989    68.899597    70.394396    261.49619        0.987 
   78980    878422.56    499.98504   -209.25451    180.98265     68.90382     70.44063    209.25451      0.98725 
   79000    878067.61     499.7122   -121.33762    181.00542    68.868742    70.439169    121.33762       0.9875 
   79020    877281.34    499.10004    65.600446    181.02819    68.823965    70.413024   -65.600446      0.98775 
   79040    876948.42    502.20064   -315.06623    181.05096    68.770403    70.432265    315.06623        0.988 
   79060    876566.25    502.11175     65.65154    181.07373    68.757126    70.406312    -65.65154      0.98825 
   79080    876862.95    502.98677   -27.731941    181.09649    68.817875    70.359123    27.731941       0.9885 
   79100     876513.3    502.73329    24.375048    181.11926     68.81469    70.325481   -24.375048      0.98875 
   79120    876069.05    502.75527    30.218082    181.14203    68.810059    70.285732   -30.218082        0.989 
   79140    876787.02     502.5765   -189.66544     181.1648     68.85899    70.284514    189.66544      0.98925 
   79160    875980.57    502.66478   -26.586617    181.18757     68.86324    70.206712    26.586617       0.9895 
   79180    874788.46    499.40675    1.1731727    181.21033    68.829733    70.136486   -1.1731727      0.98975 
   79200    875154.85    503.45088   -177.93951     181.2331    68.835381    70.151289    177.93951         0.99 
   79220    874941.07    500.48499   -38.683495    181.25587    68.853012    70.107388    38.683495      0.99025 
   79240    873326.39    500.93674   -149.74213    181.27864    68.787533    70.035821    149.74213       0.9905 
   79260    873567.74    499.61904   -234.30516    181.30141    68.787006    70.046915    234.30516      0.99075 
   79280    874247.11    499.82388   -218.73532    181.32417    68.844358    70.034196    218.73532        0.991 
   79300     874623.3    497.62889   -258.41986    181.34694    68.871625    70.027799    258.41986      0.99125 
   79320    874088.92    500.71384    67.095529    181.36971    68.821884    70.026803   -67.095529       0.9915 
   79340    873632.11    498.45982   -260.83446    181.39248    68.776304      70.0278    260.83446      0.99175 
   79360    873679.42    499.17749    -324.6889    181.41525    68.710639    70.089722     324.6889        0.992 
   79380     873625.4    500.04383   -308.16728    181.43801    68.723177    70.063809    308.16728      0.99225 
   79400    873874.56    501.32728   -41.246209    181.46078    68.758205    70.039298    41.246209       0.9925 
   79420    873977.18    499.32405   -187.15806    181.48355    68.761876    70.034997    187.15806      0.99275 
   79440    873374.19    502.06208     350.9238    181.50632    68.768944    69.970705    -350.9238        0.993 
   79460     874201.7    497.85857   -1.2694195    181.52908    68.799443    69.997174    1.2694195      0.99325 
   79480    875149.22    499.06479   -96.940736    181.55185     68.84951    70.013304    96.940736       0.9935 
   79500    875359.93    499.30835   -221.78244    181.57462    68.905801    69.964177    221.78244      0.99375 
   79520    876067.13    497.43831   -432.51243    181.59739      68.9489    69.968159    432.51243        0.994 
   79540    876199.34    500.22918    -280.5899    181.62016    68.930417    69.988707     280.5899      0.99425 
   79560    874917.94    498.40371    200.46873    181.64292    68.923114    69.884996   -200.46873       0.9945 
   79580    874348.03    499.95497   -39.362232    181.66569    68.906974    69.847078    39.362232      0.99475 
   79600    874273.95    499.93641   -375.58148    181.68846    68.926256    69.812872    375.58148        0.995 
   79620    873289.42    499.91744   -384.58467    181.71123     68.92271    69.729105    384.58467      0.99525 
   79640    873855.95    500.15275   -250.77092      181.734    68.936086    69.752061    250.77092       0.9955 
   79660    875116.24    500.20286   -270.69217    181.75676    68.993449    69.785839    270.69217      0.99575 
   79680    874255.22    500.67088    87.011818    181.77953    68.972774    69.729341   -87.011818        0.996 
   79700    875192.13    502.35729    229.54384     181.8023    68.988441    69.779474   -229.54384      0.99625 
   79720    877069.96    502.17421    -619.9309    181.82507    69.034323    69.873967     619.9309       0.9965 
   79740    875528.44    501.30358    152.27866    181.84784    68.992582    69.784621   -152.27866      0.99675 
   79760     874160.8    503.00321     432.2432     181.8706    68.906681    69.753737    -432.2432        0.997 
   79780    875661.96    501.80533   -745.34507    181.89337     68.91973    69.851549    745.34507      0.99725 
   79800    874570.59    500.19866   -22.917244    181.91614    68.861753    69.814488    22.917244       0.9975 
   79820    874072.33    503.28045    -144.1385    181.93891    68.800995    69.827592     144.1385      0.99775 
   79840    874355.18    499.20115   -64.053335    181.96168     68.79482    69.847718    64.053335        0.998 
   79860    874387.38    501.58047   -108.73735    181.98444    68.830309     69.80554    108.73735      0.99825 
   79880    873795.56    502.28025   -146.09888    182.00721    68.806774    69.773425    146.09888       0.9985 
   79900    874067.15    499.11947   -496.47768    182.02998    68.816418    69.776601    496.47768      0.99875 
   79920    873756.83    500.01582   -95.172874    182.05275    68.806177    69.753486    95.172874        0.999 
   79940    874091.04     500.8358   -32.760655    182.07552    68.800875    69.776818    32.760655      0.99925 
   79960     874733.3    499.61103     183.0588    182.09828    68.759185     69.86169    -183.0588       0.9995 
   79980     874331.6    497.77886   -111.12599    182.12105    68.718696    69.862016    111.12599      0.99975 
   80000     874207.2    499.76835   -212.72832    182.14382    68.705751    69.856504    212.72832            1 
Loop time of 5114.46 on 64 procs for 80000 steps with 72040 atoms

Performance: 1.351 ns/day, 17.759 hours/ns, 15.642 timesteps/s
99.7% CPU use with 64 MPI tasks x 1 OpenMP threads

MPI task timing breakdown:
Section |  min time  |  avg time  |  max time  |%varavg| %total
---------------------------------------------------------------
Pair    | 1295       | 1620.7     | 1864.1     | 309.6 | 31.69
Bond    | 85.593     | 100.61     | 109.95     |  53.4 |  1.97
Kspace  | 297.17     | 546.86     | 880.71     | 552.5 | 10.69
Neigh   | 2638.6     | 2652.1     | 2671.8     |  20.4 | 51.85
Comm    | 129.07     | 153.55     | 172.2      | 101.3 |  3.00
Output  | 1.594      | 1.6163     | 1.6599     |   0.9 |  0.03
Modify  | 28.277     | 33.726     | 40.525     |  50.1 |  0.66
Other   |            | 5.35       |            |       |  0.10

Nlocal:        1125.62 ave        1294 max         788 min
Histogram: 3 0 1 1 5 7 13 19 10 5
Nghost:        14525.6 ave       15180 max       13668 min
Histogram: 4 2 10 8 3 4 10 3 10 10
Neighs:       806713.0 ave 1.00096e+06 max      488883 min
Histogram: 2 1 2 4 6 11 12 15 6 5

Total # of neighbors = 51629645
Ave neighs/atom = 716.68025
Ave special neighs/atom = 5.9972238
Neighbor list builds = 80000
Dangerous builds not checked
Total wall time: 1:25:19
