LAMMPS (29 Oct 2020)
OMP_NUM_THREADS environment is not set. Defaulting to 1 thread. (../comm.cpp:94)
  using 1 OpenMP thread(s) per MPI task
####################################################
#    This program is free software: you can redistribute it and/or modify
#    it under the terms of the GNU General Public License as published by
#    the Free Software Foundation, either version 3 of the License, or
#    (at your option) any later version.
#
#    This program is distributed in the hope that it will be useful,
#    but WITHOUT ANY WARRANTY; without even the implied warranty of
#    MERCHANTABILITY or FITNESS FOR A PARTICULAR PURPOSE.  See the
#    GNU General Public License for more details.


units		real        ## defines the units style used herein. More information: https://docs.lammps.org/units.html
atom_style	full        ## defines the atom style used herein. More information: https://docs.lammps.org/atom_style.html

# Styles
pair_style      lj/cut/coul/long 15.0 10.0      ## sets the formula(s) LAMMPS uses to compute pairwise interactions; here, lennard-jones (LJ) with long-range Coulomb interaction. More: https://docs.lammps.org/pair_lj_cut_coul.html
pair_modify     shift no                        ## the shift keyword determines whether a Lennard-Jones potential is shifted at its cutoff to 0.0. More: https://docs.lammps.org/pair_modify.html
kspace_style    pppm 1.0e-4                     ## defines a long-range solver for LAMMPS to compute long-range Coulombic interactions. Note: requires use of a matching pair style, i.e. PPPM with coul/long. More: https://docs.lammps.org/kspace_style.html
bond_style      harmonic                        ## defined based off the forcefield used to construct the system; models the atoms' interactions
angle_style     harmonic
dihedral_style  opls
improper_style  cvff
special_bonds   lj 0 0 1 coul 0 0 1

read_data       300K_PMP.lmps      ## input lammps datafile, equilibriated until structure nears experimental properties
Reading data file ...
  orthogonal box = (81.194286 81.194286 81.194286) to (168.80571 168.80571 168.80571)
  4 by 4 by 4 MPI processor grid
  reading atoms ...
  72040 atoms
  reading velocities ...
  72040 velocities
  scanning bonds ...
  2 = max bonds/atom
  scanning angles ...
  6 = max angles/atom
  scanning dihedrals ...
  15 = max dihedrals/atom
  reading bonds ...
  72020 bonds
  reading angles ...
  143880 angles
  reading dihedrals ...
  215640 dihedrals
Finding 1-2 1-3 1-4 neighbors ...
  special bond factors lj:    0.0      0.0      1.0     
  special bond factors coul:  0.0      0.0      1.0     
     4 = max # of 1-2 neighbors
     9 = max # of 1-3 neighbors
    13 = max # of special neighbors
  special bonds CPU = 1.609 seconds
  read_data CPU = 3.539 seconds

dielectric      1.0
neighbor    	1.0 bin
neigh_modify	delay 0 every 1 check no        ## this is to make sure that the neighbor list is updated every timestep, and the atoms don't get lost as the system is being deformed ##

timestep	    1.0                             ## unit = fs, per "real" unit style
run_style       verlet                          ## defines algorithm used for simulation computation; verlet integration is a numerical method used to integrate Newton's equations of motion.

variable stress equal press*-1                         ## computes stress as the negative of press values
variable engStrain equal (lx-91.07191)/91.07191      ## computes engineering strain; lx_0 must be found and inputted manually (for now)

thermo		    20                                                               ## output log data (headers in thermo_style), recorded at every timestep in numList.txt
thermo_style    custom step vol temp press lx ly lz v_stress v_engStrain         ## data headers of output log file. More: https://docs.lammps.org/thermo_style.html

################# Deformation ##################

fix 1 all npt temp 300 300 100 y 1 1 100.0 z 1 1 100.0      ## stress normal to the x direction can vary; external pressure (y and z) = 1atm ##

fix 2 all deform 1 x scale 2.0 remap x                      ## sets a uniaxial (x-direction) deformation in motion, scaling a set amount (here, 4.0x) the initial length


################# Dumping ##################

reset_timestep 0

dump dump2 all custom 20000 sim.lammpstrj id mol type q xs ys zs ix iy iz

restart 40000 PMP.restart

run 		400000              ## this depends on the overall strain rate, where strain rate = deformScale / runTimeSteps (consider units!)
PPPM initialization ...
  using 12-bit tables for long-range coulomb (../kspace.cpp:328)
  G vector (1/distance) = 0.2058473
  grid = 24 24 24
  stencil order = 5
  estimated absolute RMS force accuracy = 0.021221725
  estimated relative force accuracy = 6.3908593e-05
  using double precision FFTW3
  3d grid and FFT values/proc = 1331 216
Neighbor list info ...
  update every 1 steps, delay 0 steps, check no
  max neighbors/atom: 2000, page size: 100000
  master list distance cutoff = 16
  ghost atom cutoff = 16
  binsize = 8, bins = 11 11 11
  1 neighbor lists, perpetual/occasional/extra = 1 0 0
  (1) pair lj/cut/coul/long, perpetual
      attributes: half, newton on
      pair build: half/bin/newton
      stencil: half/bin/3d/newton
      bin: standard
Per MPI rank memory allocation (min/avg/max) = 31.97 | 32.37 | 32.76 Mbytes
Step Volume Temp Press Lx Ly Lz v_stress v_engStrain 
       0    672484.51    301.29368    7181.6592    87.611428    87.611428    87.611428   -7181.6592 -0.037997245 
      20    679726.98    309.18979    978.92662    87.615809    88.085299    88.074178   -978.92662 -0.037949145 
      40    681926.72    305.64991    -1123.478    87.620189    88.203611    88.236273     1123.478 -0.037901044 
      60    678499.08    305.24414   -593.10854     87.62457    88.015092    87.976406    593.10854 -0.037852944 
      80    677936.04    305.88287   -508.94398    87.628951    87.980484    87.933582    508.94398 -0.037804844 
     100    678441.29    305.41549    -872.2296    87.633331    87.997556    87.977647     872.2296 -0.037756744 
     120    677879.35    304.71199    709.23079    87.637712    87.926127     87.97179   -709.23079 -0.037708644 
     140    679466.79    305.34845      496.098    87.642092    88.010745    88.088619     -496.098 -0.037660544 
     160    678147.89    304.06822    290.50633    87.646473    87.928907    87.995061   -290.50633 -0.037612444 
     180    677772.49    303.06886    168.60718    87.650853    87.889487    87.981397   -168.60718 -0.037564343 
     200    679196.49    304.02304    9.1360356    87.655234    87.963806    88.087354   -9.1360356 -0.037516243 
     220     679557.4    300.96924   -12.959853    87.659615    88.060279    88.033209    12.959853 -0.037468143 
     240    679342.12     302.0455   -93.567089    87.663995    88.039173     88.02202    93.567089 -0.037420043 
     260    678781.47    302.08972    100.87923    87.668376    87.994038    87.990092   -100.87923 -0.037371943 
     280    679982.91    299.33352    -225.5139    87.672756    88.083364    88.052045     225.5139 -0.037323843 
     300    679877.98    300.38872   -38.766324    87.677137    88.006288    88.111159    38.766324 -0.037275743 
     320    678858.27    300.61022    524.91358    87.681517    87.898556    88.082435   -524.91358 -0.037227642 
     340    678883.44    301.26179    867.93447    87.685898    87.917641    88.062181   -867.93447 -0.037179542 
     360     680653.6    300.29892   -822.61222    87.690279    88.000683    88.204075    822.61222 -0.037131442 
     380     679153.1    300.29894   -208.71391    87.694659    87.845844    88.160354    208.71391 -0.037083342 
     400    678585.49    299.19703    256.20599     87.69904    87.821294    88.106895   -256.20599 -0.037035242 
     420    678939.86    299.12692     173.9948     87.70342    87.812564    88.157267    -173.9948 -0.036987142 
     440    679119.89    299.51875    187.07872    87.707801     87.83081    88.157921   -187.07872 -0.036939042 
     460    679527.74    298.89799   -187.94833    87.712181    87.842131    88.195091    187.94833 -0.036890941 
     480    678967.65    298.66682   -86.776079    87.716562     87.80283    88.157439    86.776079 -0.036842841 
     500    679457.91    298.78813    127.84162    87.720943    87.864533     88.15474   -127.84162 -0.036794741 
     520    680553.64    298.60845   -187.70447    87.725323    87.969591     88.18705    187.70447 -0.036746641 
     540    679714.76    299.48682    359.88607    87.729704    87.927465    88.116144   -359.88607 -0.036698541 
     560    679314.92    298.40837    212.17028    87.734084    87.875116    88.112373   -212.17028 -0.036650441 
     580    678961.49    299.95905    281.45437    87.738465     87.84721    88.090107   -281.45437 -0.036602341 
     600    678832.12    299.01294   -99.566921    87.742845    87.818536    88.097681    99.566921 -0.036554241 
     620    679100.46    300.86047   -261.50585    87.747226    87.865882    88.080619    261.50585  -0.03650614 
     640    678857.33    300.02774   -262.93391    87.751607     87.86061    88.049972    262.93391  -0.03645804 
     660    678479.16    299.41823     39.43696    87.755987    87.834859    88.022327    -39.43696  -0.03640994 
     680    678580.97    299.89726    181.55819    87.760368    87.810487    88.055576   -181.55819  -0.03636184 
     700     679058.1    300.89764    91.564004    87.764748    87.811744     88.11183   -91.564004  -0.03631374 
     720    679303.46    301.11252    134.59922    87.769129    87.769232    88.181958   -134.59922  -0.03626564 
     740    679142.57    300.01644   -62.298071    87.773509     87.77898    88.146883    62.298071  -0.03621754 
     760    678572.75    301.35941    176.25404     87.77789    87.838615    88.008739   -176.25404 -0.036169439 
     780    678767.39    300.71453   -38.270706    87.782271      87.8838     87.98433    38.270706 -0.036121339 
     800    679109.78    302.13489   -66.140505    87.786651    87.881201    88.026923    66.140505 -0.036073239 
     820    679434.38    300.63427   -104.92983    87.791032    87.919076    88.026666    104.92983 -0.036025139 
     840    679387.76    300.68106    121.49511    87.795412    87.977483    87.957801   -121.49511 -0.035977039 
     860    679324.69    299.92652    387.68398    87.799793     87.99439     87.92835   -387.68398 -0.035928939 
     880    679581.51    299.73294    19.831055    87.804173    87.975589       87.976   -19.831055 -0.035880839 
     900    678713.86    300.23564   -100.79818    87.808554    87.889018    87.945836    100.79818 -0.035832738 
     920    678688.95    301.26629   -145.99695    87.812935    87.868028    87.959228    145.99695 -0.035784638 
     940    679341.75    298.97619   -164.54172    87.817315    87.891258    88.016171    164.54172 -0.035736538 
     960    679069.75    299.73773    177.30766    87.821696    87.860699    88.007141   -177.30766 -0.035688438 
     980    678988.45    300.50816    473.92803    87.826076    87.875609    87.977286   -473.92803 -0.035640338 
    1000    679363.52     300.4535     229.7003    87.830457    87.872229    88.024878    -229.7003 -0.035592238 
    1020     679436.3     298.9274    207.73292    87.834837    87.916273    87.985817   -207.73292 -0.035544138 
    1040    679634.99    299.28722   -204.56839    87.839218    87.929098    87.994323    204.56839 -0.035496037 
    1060    679701.31    299.82991   -266.25527    87.843599    87.951188    87.976418    266.25527 -0.035447937 
    1080    679664.83    298.76319   -189.93293    87.847979    87.938901    87.979601    189.93293 -0.035399837 
    1100    680230.76    299.33206   -147.72965     87.85236    87.979315    88.008023    147.72965 -0.035351737 
    1120    679951.66    299.12133    175.05994     87.85674    87.909982    88.036903   -175.05994 -0.035303637 
    1140    679574.07    298.97561    320.69536    87.861121    87.940175    87.953421   -320.69536 -0.035255537 
    1160    679759.57    300.14947    54.136588    87.865501    87.969231    87.943985   -54.136588 -0.035207437 
    1180    679866.18    300.96375   -248.61541    87.869882    87.924374    87.998264    248.61541 -0.035159337 
    1200    679775.12    299.52936   -231.51245    87.874263    87.962231    87.944227    231.51245 -0.035111236 
    1220    679813.52    300.70199    -95.83497    87.878643    87.935227    87.971817     95.83497 -0.035063136 
    1240    679840.26    299.55552    259.81564    87.883024    87.898084    88.008067   -259.81564 -0.035015036 
    1260    680531.88    299.88467   -51.934901    87.887404    88.002287    87.988899    51.934901 -0.034966936 
    1280    680569.59    300.42016   -109.51617    87.891785    87.992192    87.999482    109.51617 -0.034918836 
    1300    680438.35    300.32807    177.39674    87.896165    87.946769    88.023568   -177.39674 -0.034870736 
    1320    680939.14    301.00756    364.49833    87.900546    87.991197    88.039486   -364.49833 -0.034822636 
    1340    680928.75    300.25273    -372.7043    87.904927     87.93164    88.093381     372.7043 -0.034774535 
    1360    680537.05    301.26023   -408.15722    87.909307    87.927999    88.041965    408.15722 -0.034726435 
    1380    680139.57    301.35003    -68.67141    87.913688    87.974461     87.93969     68.67141 -0.034678335 
    1400    679968.85    300.64464    349.81796    87.918068    87.883524    88.004203   -349.81796 -0.034630235 
    1420    680240.76    300.46045    278.86761    87.922449    87.864547    88.054023   -278.86761 -0.034582135 
    1440    680465.14    301.23128    46.793656    87.926829    87.920759    88.022366   -46.793656 -0.034534035 
    1460    680755.56    300.19122   -52.452604     87.93121    87.897422    88.078927    52.452604 -0.034485935 
    1480     681189.6    301.38268   -541.80703    87.935591     87.95744    88.070557    541.80703 -0.034437834 
    1500    680834.32    300.64045   -186.00788    87.939971    87.928751    88.048956    186.00788 -0.034389734 
    1520    680151.02    300.24523    359.81485    87.944352    87.903782    87.981191   -359.81485 -0.034341634 
    1540    680496.84    299.76052    228.05968    87.948732    87.948146    87.977139   -228.05968 -0.034293534 
    1560    680226.38     301.9425    106.67977    87.953113    87.945994    87.939946   -106.67977 -0.034245434 
    1580    679760.12    300.41558    286.29479    87.957493    87.914149    87.907122   -286.29479 -0.034197334 
    1600    679229.14    300.19895   -118.56601    87.961874    87.920771    87.827465    118.56601 -0.034149234 
    1620    679473.23    300.63848   -216.16949    87.966255      87.9604    87.815071    216.16949 -0.034101133 
    1640    679571.86    299.36559   -311.56422    87.970635    87.951188    87.832642    311.56422 -0.034053033 
    1660    679515.37    300.26678   -47.239042    87.975016    87.938159     87.83398    47.239042 -0.034004933 
    1680     680462.2    298.87494   -106.21044    87.979396    87.996604    87.893572    106.21044 -0.033956833 
    1700    680891.61    299.04442    340.88611    87.983777    88.046996    87.894325   -340.88611 -0.033908733 
    1720    680773.45    300.57731    399.88856    87.988157    87.990146    87.931473   -399.88856 -0.033860633 
    1740    680941.15    299.63139    193.98048    87.992538    87.899633    88.039318   -193.98048 -0.033812533 
    1760    681084.65    300.22105   -280.50217    87.996919    87.911838    88.041264    280.50217 -0.033764433 
    1780    680861.89    299.80224   -277.73442    88.001299    87.939141    87.980762    277.73442 -0.033716332 
    1800    681426.13    299.64167   -499.61789     88.00568    87.948265    88.040156    499.61789 -0.033668232 
    1820    680892.97    299.99889    17.779206     88.01006    87.869731    88.045515   -17.779206 -0.033620132 
    1840    680417.22    300.48671    412.02583    88.014441    87.865922     87.98343   -412.02583 -0.033572032 
    1860    681180.77    300.20076    88.707367    88.018821    87.961807    87.981769   -88.707367 -0.033523932 
    1880    681866.58    299.67913   -346.37675    88.023202    88.048781    87.978973    346.37675 -0.033475832 
    1900    681062.78    299.81716    77.455579    88.027583      87.9771    87.942484   -77.455579 -0.033427732 
    1920     681177.8    301.21738    346.04817    88.031963    87.921252    88.008827   -346.04817 -0.033379631 
    1940    681334.55    299.14872    -261.7713    88.036344    87.892258    88.053738     261.7713 -0.033331531 
    1960    680668.41    300.09187    122.48261    88.040724    87.856724    87.998847   -122.48261 -0.033283431 
    1980    680706.87    301.89635     -90.3981    88.045105    87.825214    88.031014      90.3981 -0.033235331 
    2000    680587.44    301.24567    297.69137    88.049485    87.784475    88.052034   -297.69137 -0.033187231 
    2020    681122.28    301.86873   -200.07494    88.053866     87.81995     88.08125    200.07494 -0.033139131 
    2040    681606.45    301.36006   -49.790156    88.058247    87.861865     88.09743    49.790156 -0.033091031 
    2060    681420.05    302.26131    193.33262    88.062627    87.812638    88.118328   -193.33262  -0.03304293 
    2080    681317.39    301.45368    314.85691    88.067008    87.764659    88.148832   -314.85691  -0.03299483 
    2100    682579.99    300.79065   -452.79481    88.071388    87.879724     88.19217    452.79481  -0.03294673 
    2120    681910.21    300.24859   -289.48618    88.075769     87.82319    88.157962    289.48618  -0.03289863 
    2140    681383.16    300.87391    47.903302    88.080149    87.755336    88.153552   -47.903302  -0.03285053 
    2160    682046.78    300.12012    -410.6433     88.08453    87.870866    88.119012     410.6433  -0.03280243 
    2180    681453.11    300.68048    392.47272    88.088911    87.805349    88.103623   -392.47272  -0.03275433 
    2200    680730.59    299.91686     130.6762    88.093291    87.776925    88.034331    -130.6762 -0.032706229 
    2220    680691.26    299.09995   -267.53364    88.097672    87.826119    87.975561    267.53364 -0.032658129 
    2240    680383.17    299.47086    98.341352    88.102052    87.752166    88.005475   -98.341352 -0.032610029 
    2260    680672.42    299.19877   -8.4727162    88.106433    87.784029    88.006557    8.4727162 -0.032561929 
    2280    681019.49    299.45653    94.611985    88.110813    87.855178    87.975747   -94.611985 -0.032513829 
    2300     680529.6    298.79978    29.926578    88.115194    87.829476    87.933817   -29.926578 -0.032465729 
    2320    680653.36    299.75309   -139.81205    88.119575      87.8797    87.895175    139.81205 -0.032417629 
    2340    681052.39    300.15491    112.53807    88.123955    87.924235    87.897786   -112.53807 -0.032369529 
    2360    680996.71    299.97017    292.35873    88.128336    87.911325    87.899139   -292.35873 -0.032321428 
    2380    681368.71    300.54839    29.368882    88.132716     87.98003    87.874107   -29.368882 -0.032273328 
    2400    681908.69    300.13239   -122.13183    88.137097    87.972658    87.946745    122.13183 -0.032225228 
    2420    681485.32    300.54845   -42.834989    88.141477    87.886129    87.974304    42.834989 -0.032177128 
    2440    681480.69    299.79666    412.67873    88.145858    87.878462    87.977009   -412.67873 -0.032129028 
    2460    682262.54    300.00923   -207.66155    88.150239    87.903702    88.048278    207.66155 -0.032080928 
    2480    682104.35    299.89434   -22.561701    88.154619    87.890977    88.036233    22.561701 -0.032032828 
    2500    682055.29    300.89247    34.651475       88.159    87.870645    88.045895   -34.651475 -0.031984727 
    2520    681771.23    298.70055   -62.446328     88.16338    87.863121     88.01239    62.446328 -0.031936627 
    2540    681456.74    300.98806   -391.85063    88.167761    87.903806    87.926706    391.85063 -0.031888527 
    2560    681315.46    300.94285   -54.055638    88.172141    87.919948     87.88797    54.055638 -0.031840427 
    2580    680955.38    300.84217    559.40138    88.176522    87.889319    87.867767   -559.40138 -0.031792327 
    2600    681106.59    301.79204    358.53624    88.180903    87.909219    87.863019   -358.53624 -0.031744227 
    2620     680809.4    301.36105   -158.29513    88.185283    87.889506    87.840017    158.29513 -0.031696127 
    2640    680467.46    302.64518   -612.01274    88.189664    87.861062    87.819958    612.01274 -0.031648026 
    2660    679864.83     300.3699    13.935709    88.194044    87.843533    87.755334   -13.935709 -0.031599926 
    2680    680500.24    302.16674   -230.70829    88.198425    87.900506     87.77606    230.70829 -0.031551826 
    2700    680389.56     301.8674    464.26696    88.202805    87.919336    87.738629   -464.26696 -0.031503726 
    2720     680578.3    301.53657    367.86617    88.207186    87.920825    87.757122   -367.86617 -0.031455626 
    2740    680634.88    301.12835    94.626329    88.211567    87.900023    87.780828   -94.626329 -0.031407526 
    2760    680907.02    300.60484   -276.82724    88.215947    87.938886    87.772759    276.82724 -0.031359426 
    2780     680785.1      300.572   -346.13093    88.220328    87.964822    87.726812    346.13093 -0.031311325 
    2800     680514.3     300.7401   -309.48119    88.224708    87.972469    87.679939    309.48119 -0.031263225 
    2820    680706.77    299.11047   -247.13134    88.229089    87.989064    87.683843    247.13134 -0.031215125 
    2840    680873.78    300.19701    220.26291    88.233469     87.93415    87.755771   -220.26291 -0.031167025 
    2860     680242.6    299.95947    211.93943     88.23785    87.905833    87.698308   -211.93943 -0.031118925 
    2880    680290.08    299.82586    81.510658    88.242231    87.901139    87.704759   -81.510658 -0.031070825 
    2900    680447.88    298.73382    69.624558    88.246611    87.901847    87.720042   -69.624558 -0.031022725 
    2920    680164.33    300.08132    226.62819    88.250992     87.85972    87.721175   -226.62819 -0.030974625 
    2940    680478.53     298.9009   -346.31066    88.255372    87.862372    87.754693    346.31066 -0.030926524 
    2960    680632.04    300.47649   -531.14423    88.259753    87.847424    87.785069    531.14423 -0.030878424 
    2980    679888.83    301.36904   -106.89839    88.264133    87.770387    87.761822    106.89839 -0.030830324 
    3000    680479.62    299.83767    133.40123    88.268514    87.823889    87.780216   -133.40123 -0.030782224 
    3020    680989.97    300.95421    107.74361    88.272895    87.849913    87.815669   -107.74361 -0.030734124 
    3040     680539.9    298.79885    296.74184    88.277275    87.808689    87.794474   -296.74184 -0.030686024 
    3060    680929.51    300.38704    84.293685    88.281656    87.852108    87.796964   -84.293685 -0.030637924 
    3080    680686.38    300.27661   -24.332934    88.286036    87.874678    87.738721    24.332934 -0.030589823 
    3100    681010.51     299.6416   -314.04157    88.290417    87.834321    87.816475    314.04157 -0.030541723 
    3120    681236.95    299.99924   -265.58694    88.294797    87.808352    87.867294    265.58694 -0.030493623 
    3140    681089.93    300.29159    54.082783    88.299178     87.80155    87.850779   -54.082783 -0.030445523 
    3160    681281.23    300.32177    213.80487    88.303559    87.763176    87.909516   -213.80487 -0.030397423 
    3180    681561.84    300.55922    343.86339    88.307939    87.766965    87.937564   -343.86339 -0.030349323 
    3200     681174.8    301.28513    106.48368     88.31232    87.723878    87.926433   -106.48368 -0.030301223 
    3220     680884.6    301.55262   -121.01859      88.3167    87.699681    87.908863    121.01859 -0.030253122 
    3240    680282.54    301.33953   -65.489726    88.321081    87.645851    87.880716    65.489726 -0.030205022 
    3260    680366.81    302.12604   -77.265618    88.325461    87.609493    87.923716    77.265618 -0.030156922 
    3280    681089.11    300.27388    3.6343824    88.329842    87.596909    88.025339   -3.6343824 -0.030108822 
    3300    681156.92    301.72592   -60.798187    88.334223    87.617762    88.008785    60.798187 -0.030060722 
    3320    681066.85    300.88774     -18.2912    88.338603    87.598672     88.01196      18.2912 -0.030012622 
    3340    681974.14    299.71016   -90.587293    88.342984    87.658676    88.064513    90.587293 -0.029964522 
    3360    681707.84    300.67427   -50.411612    88.347364    87.689572    87.994746    50.411612 -0.029916422 
    3380    681295.73    300.20779   -82.665648    88.351745    87.665276    87.961562    82.665648 -0.029868321 
    3400    681470.59    299.92297   -31.875508    88.356125    87.696969     87.94798    31.875508 -0.029820221 
    3420    681153.74    299.69518    49.035394    88.360506    87.758043    87.841556   -49.035394 -0.029772121 
    3440    681516.16    300.51819    85.322164    88.364887    87.801418    87.840521   -85.322164 -0.029724021 
    3460    682179.06    298.43394   -213.19259    88.369267    87.799003    87.924023    213.19259 -0.029675921 
    3480    681462.75    299.97068    36.247283    88.373648    87.761902    87.864474   -36.247283 -0.029627821 
    3500    681224.44    299.37155    252.79593    88.378028    87.766861    87.824431   -252.79593 -0.029579721 
    3520    681970.89    299.28135   -30.536424    88.382409    87.813026    87.870088    30.536424  -0.02953162 
    3540    682108.82    299.28016   -205.61345    88.386789    87.806519    87.890017    205.61345  -0.02948352 
    3560    681572.35    299.49964    120.84169     88.39117     87.80418     87.81888   -120.84169  -0.02943542 
    3580    682563.84    300.42342    -212.9461    88.395551    87.924425    87.822003     212.9461  -0.02938732 
    3600    682543.54    298.85105   -152.09436    88.399931    87.916378    87.823077    152.09436  -0.02933922 
    3620    681845.47    300.12782    163.04035    88.404312    87.832008    87.813179   -163.04035  -0.02929112 
    3640    682356.14    299.94046    -287.6029    88.408692    87.825682    87.880922     287.6029  -0.02924302 
    3660    681786.45    298.42162    71.644955    88.413073    87.761554    87.867359   -71.644955 -0.029194919 
    3680    681895.33     299.6988    145.51388    88.417453    87.711821    87.926864   -145.51388 -0.029146819 
    3700    683101.06    298.97975   -366.75464    88.421834    87.819188    87.970289    366.75464 -0.029098719 
    3720    682339.48    300.54481    282.98241    88.426215    87.788651    87.898425   -282.98241 -0.029050619 
    3740    682281.08    300.19577     148.3708    88.430595    87.754917    87.920333    -148.3708 -0.029002519 
    3760     683633.5    300.33973   -240.27133    88.434976    87.871621    87.973249    240.27133 -0.028954419 
    3780    683913.04     300.8046   -166.51828    88.439356    87.853458    88.023058    166.51828 -0.028906319 
    3800    683987.14    301.94278    26.025064    88.443737    87.804424    88.077394   -26.025064 -0.028858218 
    3820    684216.29    301.93753   -216.17977    88.448117    87.864727    88.042072    216.17977 -0.028810118 
    3840    683684.16    300.66082   -178.54503    88.452498    87.824233    88.009803    178.54503 -0.028762018 
    3860    683515.22    301.27206   -74.455927    88.456879     87.75392    88.054195    74.455927 -0.028713918 
    3880    682942.98    301.66627    208.41367    88.461259    87.722878    88.007252   -208.41367 -0.028665818 
    3900    682340.29    301.73988    240.97754     88.46564    87.721939    87.926173   -240.97754 -0.028617718 
    3920    682921.76    301.36771   -473.81191     88.47002    87.794648    87.923867    473.81191 -0.028569618 
    3940    682778.34     301.4276   -275.74769    88.474401    87.822453     87.87322    275.74769 -0.028521518 
    3960    681858.55     299.9748    140.14239    88.478781    87.735645    87.837321   -140.14239 -0.028473417 
    3980       681994    301.75397   -57.782917    88.483162    87.814334      87.7717    57.782917 -0.028425317 
    4000     682065.9    299.84683   -84.361367    88.487543    87.822222    87.768724    84.361367 -0.028377217 
    4020    681375.13    300.35688    285.33498    88.491923    87.726802    87.770859   -285.33498 -0.028329117 
    4040    681988.56    300.72251   -158.85012    88.496304    87.749252    87.823053    158.85012 -0.028281017 
    4060     682251.9    299.95368    140.58073    88.500684    87.778556    87.823288   -140.58073 -0.028232917 
    4080    682164.44    300.12397    67.571858    88.505065    87.774239    87.812003   -67.571858 -0.028184817 
    4100    682542.63    300.61973   -158.23855    88.509445    87.811795    87.818762    158.23855 -0.028136716 
    4120    682630.03    299.12775   -238.59095    88.513826    87.826915     87.81054    238.59095 -0.028088616 
    4140    682276.94    299.61693    249.86049    88.518207    87.786194    87.801486   -249.86049 -0.028040516 
    4160    682240.35    300.51989    297.11436    88.522587    87.806118    87.772511   -297.11436 -0.027992416 
    4180    682419.51    299.35284   -284.28314    88.526968    87.812549    87.784787    284.28314 -0.027944316 
    4200     682013.9    298.57871   -172.52441    88.531348    87.795727    87.745079    172.52441 -0.027896216 
    4220     681893.8    299.32218   -246.92731    88.535729     87.83664    87.684425    246.92731 -0.027848116 
    4240    682395.63    299.85899   -422.07739    88.540109    87.907437    87.673948    422.07739 -0.027800015 
    4260    682246.78    298.72192    185.17932     88.54449    87.883093    87.674767   -185.17932 -0.027751915 
    4280    682277.52    300.46458    57.292543    88.548871      87.8646    87.692832   -57.292543 -0.027703815 
    4300    681882.43    298.56666     76.96782    88.553251    87.821456     87.68077    -76.96782 -0.027655715 
    4320    681941.28    300.54575    21.870916    88.557632    87.802583    87.702848   -21.870916 -0.027607615 
    4340     682535.6    299.43908    -265.3803    88.562012    87.815872    87.761657     265.3803 -0.027559515 
    4360    682647.17    299.20519   -308.14155    88.566393    87.789548    87.797979    308.14155 -0.027511415 
    4380    682612.65    300.29676     -250.742    88.570773    87.775466    87.803283      250.742 -0.027463314 
    4400    682571.11    301.50492   -97.531999    88.575154    87.816824     87.75225    97.531999 -0.027415214 
    4420    683111.31    300.55909    289.17575    88.579535    87.827253    87.806928   -289.17575 -0.027367114 
    4440    683580.82    301.07334     174.3696    88.583915    87.873847    87.816346    -174.3696 -0.027319014 
    4460    683247.79    299.53094       291.54    88.588296    87.862916    87.780141      -291.54 -0.027270914 
    4480    683299.57    301.16571   -99.549785    88.592676    87.823784    87.821566    99.549785 -0.027222814 
    4500    682984.47    300.40071   -44.573644    88.597057     87.76861    87.831908    44.573644 -0.027174714 
    4520    683165.58    299.77331   -306.77686    88.601437    87.758426    87.861048    306.77686 -0.027126614 
    4540    683467.45    301.59905   -519.92889    88.605818    87.762662    87.891284    519.92889 -0.027078513 
    4560    682641.42    300.83256    26.425747    88.610199    87.743451    87.799938   -26.425747 -0.027030413 
    4580    683062.05    301.28651   -54.918542    88.614579    87.787101    87.806015    54.918542 -0.026982313 
    4600    683902.83    300.96751     229.9081     88.61896    87.871322    87.825492    -229.9081 -0.026934213 
    4620    683839.85    299.97961    253.36999     88.62334    87.905528    87.778893   -253.36999 -0.026886113 
    4640    684309.26    301.56844   -18.768339    88.627721    87.878335    87.861986    18.768339 -0.026838013 
    4660    684214.92     299.9756    47.958523    88.632101     87.92488    87.799028   -47.958523 -0.026789913 
    4680    684204.44    299.37331    -389.0777    88.636482    87.920296    87.797922     389.0777 -0.026741812 
    4700    683976.02    299.24164   -331.96675    88.640863    87.844933    87.839566    331.96675 -0.026693712 
    4720    683876.66    299.76761   -78.218399    88.645243    87.895671    87.771771    78.218399 -0.026645612 
    4740    683978.53    299.56198   -62.451414    88.649624    87.911215    87.764986    62.451414 -0.026597512 
    4760    683935.58    301.01513    224.88986    88.654004    87.849156    87.817131   -224.88986 -0.026549412 
    4780    683791.18    300.16043    29.412152    88.658385    87.859002    87.784414   -29.412152 -0.026501312 
    4800    683703.54    299.56874   -100.19229    88.662765     87.84821    87.779608    100.19229 -0.026453212 
    4820    684201.22    300.45336   -261.10707    88.667146    87.883741    87.803652    261.10707 -0.026405111 
    4840    683704.63    299.59642   -211.51532    88.671527    87.914383     87.70501    211.51532 -0.026357011 
    4860    683606.57    298.98397   -375.15113    88.675907    87.909573    87.692896    375.15113 -0.026308911 
    4880    683536.72     300.1349   -161.93412    88.680288     87.91143    87.677753    161.93412 -0.026260811 
    4900    684026.14     299.0122   -80.852791    88.684668    87.976983    87.670824    80.852791 -0.026212711 
    4920     683947.1    299.22439    371.46988    88.689049    87.955327    87.677946   -371.46988 -0.026164611 
    4940    683637.59     300.5454    177.96268    88.693429    87.871185    87.717855   -177.96268 -0.026116511 
    4960    683380.38    299.05101   -7.8257291     88.69781    87.869234    87.682468    7.8257291  -0.02606841 
    4980     683760.7    299.22264    -256.9288    88.702191    87.889521    87.706684     256.9288  -0.02602031 
    5000     683308.3    298.87128   -254.50573    88.706571    87.872241     87.66156    254.50573  -0.02597221 
    5020    682850.47    299.23502   -419.76161    88.710952    87.772784     87.69776    419.76161  -0.02592411 
    5040    682629.85    300.74048    36.753442    88.715332    87.705569    87.732281   -36.753442  -0.02587601 
    5060    682915.96    300.09832    35.692801    88.719713    87.737446    87.732832   -35.692801  -0.02582791 
    5080    682652.86     300.0258    17.062935    88.724093    87.720076    87.712066   -17.062935  -0.02577981 
    5100    682178.05    300.26173     64.80612    88.728474    87.730453    87.636365    -64.80612  -0.02573171 
    5120    682072.65    301.10478    289.01079    88.732855    87.712685    87.636248   -289.01079 -0.025683609 
    5140    682571.89    301.39308    -201.1476    88.737235    87.768591    87.640204     201.1476 -0.025635509 
    5160    682597.57    300.54828   -277.98598    88.741616    87.764831     87.64293    277.98598 -0.025587409 
    5180    682671.28    300.37038   -396.84249    88.745996    87.776722    87.636192    396.84249 -0.025539309 
    5200    682548.13    301.55674   -81.848858    88.750377    87.683454    87.709256    81.848858 -0.025491209 
    5220     683142.8    300.59013   -110.22601    88.754757    87.718348     87.74642    110.22601 -0.025443109 
    5240    683274.57    300.07923   -181.61442    88.759138    87.800097    87.677303    181.61442 -0.025395009 
    5260    682682.36    300.86742    396.40598    88.763519    87.735205    87.661778   -396.40598 -0.025346908 
    5280    682673.84    300.83913   -113.02212    88.767899    87.691255    87.700291    113.02212 -0.025298808 
    5300    682560.75    301.05286    -463.1807     88.77228    87.727135    87.645575     463.1807 -0.025250708 
    5320    682852.12    298.62179   -672.69285     88.77666    87.747437    87.658376    672.69285 -0.025202608 
    5340    682204.64    300.02688    67.573751    88.781041    87.669549    87.648738   -67.573751 -0.025154508 
    5360    682708.59    298.89199   -152.66525    88.785421    87.727745    87.650973    152.66525 -0.025106408 
    5380    682161.63    299.80148    420.90457    88.789802    87.721775    87.582389   -420.90457 -0.025058308 
    5400    682414.57    299.73534   -54.906294    88.794183    87.749195    87.583165    54.906294 -0.025010207 
    5420    682428.82    298.26546   -132.11858    88.798563    87.768957    87.560953    132.11858 -0.024962107 
    5440       682078    298.56155   -197.73206    88.802944    87.764752    87.515816    197.73206 -0.024914007 
    5460    681811.99    298.92749   -143.49196    88.807324    87.736236    87.505802    143.49196 -0.024865907 
    5480    682412.27    299.73097   -364.63993    88.811705    87.758606    87.556199    364.63993 -0.024817807 
    5500    682275.11    300.00159   -206.34805    88.816085     87.75113    87.541742    206.34805 -0.024769707 
    5520    681432.48    300.25252     397.3941    88.820466    87.692596    87.487672    -397.3941 -0.024721607 
    5540    682170.22    298.63795    173.36705    88.824847    87.745978    87.524788   -173.36705 -0.024673506 
    5560    681729.86    300.82383    261.68312    88.829227    87.725926    87.483968   -261.68312 -0.024625406 
    5580    681649.19    299.94197   -239.36102    88.833608    87.739841     87.45543    239.36102 -0.024577306 
    5600    682242.91    298.98667   -412.98042    88.837988    87.814236    87.453136    412.98042 -0.024529206 
    5620    682687.88    300.51188   -460.31869    88.842369    87.869514     87.45081    460.31869 -0.024481106 
    5640    682517.55    301.02403   -179.82735    88.846749    87.783286    87.510556    179.82735 -0.024433006 
    5660    683035.24    300.11498   -245.57173     88.85113    87.808609    87.547361    245.57173 -0.024384906 
    5680    682593.06    301.48405    408.61353    88.855511    87.797983     87.49696   -408.61353 -0.024336806 
    5700    682304.16    301.11784    357.77424    88.859891    87.768215    87.485278   -357.77424 -0.024288705 
    5720    682888.89    301.23401   -119.27838    88.864272    87.769795     87.55436    119.27838 -0.024240605 
    5740    682668.34    300.82592   -103.85307    88.868652    87.764008    87.527539    103.85307 -0.024192505 
    5760    682716.78    301.29016   -342.19923    88.873033    87.752065    87.541348    342.19923 -0.024144405 
    5780    682824.19    300.82113   -381.06878    88.877413    87.734741    87.568094    381.06878 -0.024096305 
    5800    682670.96    301.33533     -241.611    88.881794    87.714845    87.563985      241.611 -0.024048205 
    5820    682891.48    301.37016   -17.752185    88.886175    87.773657    87.529266    17.752185 -0.024000105 
    5840    682526.29    299.91146    426.45538    88.890555    87.733473    87.518214   -426.45538 -0.023952004 
    5860    681751.27    300.54615    423.92876    88.894936    87.658532     87.48926   -423.92876 -0.023903904 
    5880    682252.63    300.40115   -555.54552    88.899316    87.615959    87.591826    555.54552 -0.023855804 
    5900    682183.33    300.39389   -211.75903    88.903697    87.543836    87.650765    211.75903 -0.023807704 
    5920    681809.03    300.13026   -106.91212    88.908077    87.521533    87.620679    106.91212 -0.023759604 
    5940    681725.92    300.14965   -36.606439    88.912458    87.507866    87.619364    36.606439 -0.023711504 
    5960    681487.79    299.90073   -154.58829    88.916839    87.487398    87.604934    154.58829 -0.023663404 
    5980    681449.06    300.48342   -60.142883    88.921219    87.484186    87.598856    60.142883 -0.023615303 
    6000    681995.55    299.77229   -213.02124      88.9256    87.552846    87.596039    213.02124 -0.023567203 
    6020    682262.99    300.74685    116.92466     88.92998    87.582905    87.595999   -116.92466 -0.023519103 
    6040    682157.02     298.6479    138.12449    88.934361    87.610507    87.550488   -138.12449 -0.023471003 
    6060    682275.62    299.59996   -375.06673    88.938741    87.639102    87.532828    375.06673 -0.023422903 
    6080    682311.18    299.36779   -373.99547    88.943122    87.624615     87.54755    373.99547 -0.023374803 
    6100    682339.68    298.82495   -125.77874    88.947503    87.635307    87.536214    125.77874 -0.023326703 
    6120    682891.09    300.18234   -199.76827    88.951883     87.68132    87.556667    199.76827 -0.023278602 
    6140    683088.17    299.53711   -99.425935    88.956264    87.687571     87.57138    99.425935 -0.023230502 
    6160    682704.35    299.38114   -15.946277    88.960644    87.649153    87.556225    15.946277 -0.023182402 
    6180    683180.83    299.43062    15.162626    88.965025    87.718675     87.54358   -15.162626 -0.023134302 
    6200     683945.1    299.85254   -304.10184    88.969405    87.770548    87.585405    304.10184 -0.023086202 
    6220    683099.75    299.02586   -348.38299    88.973786    87.716809    87.526433    348.38299 -0.023038102 
    6240    682830.49    300.81535   -44.353124    88.978167    87.683306    87.521053    44.353124 -0.022990002 
    6260    683534.44    299.21351   -248.82543    88.982547     87.72543    87.564901    248.82543 -0.022941902 
    6280    683388.12    300.88215    -104.0212    88.986928    87.664912     87.60228     104.0212 -0.022893801 
    6300    683134.51    301.98926   -133.91835    88.991308    87.602333    87.628012    133.91835 -0.022845701 
    6320    683152.48    300.49978   -365.13795    88.995689    87.579348    87.649001    365.13795 -0.022797601 
    6340    683044.89     301.1475   -234.32048    89.000069    87.503704    87.706638    234.32048 -0.022749501 
    6360    682736.88    302.15563    170.77557     89.00445    87.437051    87.729598   -170.77557 -0.022701401 
    6380    682906.08    300.79293    -22.91989    89.008831    87.529771    87.654071     22.91989 -0.022653301 
    6400    682420.52    301.46829   -236.42624    89.013211    87.461193    87.656114    236.42624 -0.022605201 
    6420    682702.58    300.42402   -307.84996    89.017592    87.499055    87.650085    307.84996   -0.0225571 
    6440     682319.3    300.78786    40.563392    89.021972    87.517966    87.577638   -40.563392    -0.022509 
    6460    682850.75    300.85829   -298.01567    89.026353    87.492736    87.666811    298.01567   -0.0224609 
    6480    683341.39    299.68852   -206.05036    89.030733    87.463082    87.755228    206.05036   -0.0224128 
    6500    683108.43    299.22251    2.0183172    89.035114    87.464119    87.719955   -2.0183172   -0.0223647 
    6520    683567.19    301.34463   -553.50151    89.039495    87.475172    87.763456    553.50151   -0.0223166 
    6540    683606.57    299.88098   -320.70859    89.043875    87.461471    87.777943    320.70859   -0.0222685 
    6560    683312.99    299.15872    -181.5349    89.048256    87.567326     87.62987     181.5349 -0.022220399 
    6580    683160.16    299.91175     265.6064    89.052636    87.557812    87.615481    -265.6064 -0.022172299 
    6600    683999.74    299.58073    -122.1222    89.057017    87.560702    87.715947     122.1222 -0.022124199 
    6620    684533.36    300.63132   -264.87352    89.061397    87.575117    87.765612    264.87352 -0.022076099 
    6640    684399.11    299.95916   -337.23754    89.065778    87.624236    87.694898    337.23754 -0.022027999 
    6660     684617.9    300.01174   -199.52643    89.070159    87.650568    87.692266    199.52643 -0.021979899 
    6680    684907.31    300.18619   -7.4334369    89.074539    87.674425    87.701151    7.4334369 -0.021931799 
    6700       684848    300.78673   -137.38487     89.07892    87.651316    87.712363    137.38487 -0.021883698 
    6720    684815.14    299.28084   -38.962492      89.0833    87.643088    87.712074    38.962492 -0.021835598 
    6740    685063.46    298.28997   -270.86159    89.087681    87.703528    87.679101    270.86159 -0.021787498 
    6760    684792.13    300.00461   -115.52706    89.092061     87.70136    87.642231    115.52706 -0.021739398 
    6780    684427.04    299.02603   -122.46435    89.096442    87.673088    87.619444    122.46435 -0.021691298 
    6800    684090.49    298.91219   -87.034149    89.100823    87.679088    87.566062    87.034149 -0.021643198 
    6820    683885.67    299.30987   -127.09362    89.105203    87.680502    87.534128    127.09362 -0.021595098 
    6840    684475.65     300.2723    -446.6594    89.109584    87.689432    87.596415     446.6594 -0.021546998 
    6860    684511.89    300.56553   -227.33889    89.113964     87.66321    87.622948    227.33889 -0.021498897 
    6880    684002.93    300.87416     38.32634    89.118345    87.598267    87.618404    -38.32634 -0.021450797 
    6900    683880.39    300.80366   -252.84679    89.122725    87.572564    87.624111    252.84679 -0.021402697 
    6920    683936.38    301.14862   -170.96413    89.127106    87.630926    87.568619    170.96413 -0.021354597 
    6940    684066.55    301.41335   -184.10063    89.131487    87.656324    87.555605    184.10063 -0.021306497 
    6960    684300.17    301.45975   -195.99788    89.135867    87.664459    87.573075    195.99788 -0.021258397 
    6980    684459.13     300.9728   -93.860401    89.140248    87.629342    87.624214    93.860401 -0.021210297 
    7000    684619.06    301.12022    66.867865    89.144628    87.597782    87.671956   -66.867865 -0.021162196 
    7020    684643.47    301.97143    101.97988    89.149009    87.592943    87.675618   -101.97988 -0.021114096 
    7040    683984.86    300.96146   -189.81686    89.153389    87.540496    87.639446    189.81686 -0.021065996 
    7060    683528.28    301.90889   -196.68388     89.15777    87.482432    87.634768    196.68388 -0.021017896 
    7080     683474.5    299.62851    28.776944    89.162151     87.51906    87.586896   -28.776944 -0.020969796 
    7100    683405.57    300.06494   -43.911405    89.166531    87.496913    87.595926    43.911405 -0.020921696 
    7120    683685.67    299.27073   -39.626364    89.170912    87.485339    87.639117    39.626364 -0.020873596 
    7140    683203.91    299.61356   -47.593878    89.175292    87.476462    87.581945    47.593878 -0.020825495 
    7160    682259.05    300.55262    85.253837    89.179673    87.401321    87.531713   -85.253837 -0.020777395 
    7180    682819.87    301.05759   -44.386599    89.184053    87.399521    87.601167    44.386599 -0.020729295 
    7200    683194.67    299.86394     -422.746    89.188434    87.421334    87.623078      422.746 -0.020681195 
    7220     682500.3     299.7896   -113.90076    89.192815    87.399233    87.551855    113.90076 -0.020633095 
    7240    682670.99    299.57675   -222.26565    89.197195    87.440393     87.52823    222.26565 -0.020584995 
    7260    682609.77    301.07254   -20.863557    89.201576    87.423116    87.533379    20.863557 -0.020536895 
    7280     683062.3    299.14601    -226.5016    89.205956      87.4349    87.575302     226.5016 -0.020488794 
    7300    683125.85     298.8436   -277.20442    89.210337    87.493895    87.520098    277.20442 -0.020440694 
    7320    682307.59    299.84543     157.8098    89.214717    87.436631    87.468219    -157.8098 -0.020392594 
    7340    682272.19    300.69274    36.859762    89.219098    87.386204    87.509855   -36.859762 -0.020344494 
    7360     683408.6    298.93584   -443.54983    89.223479    87.509197    87.528119    443.54983 -0.020296394 
    7380     683560.2    300.22109   -43.204657    89.227859    87.548064    87.504371    43.204657 -0.020248294 
    7400    683136.54    299.46357   -56.613684     89.23224    87.517535    87.476348    56.613684 -0.020200194 
    7420    682537.81    299.62547    269.59783     89.23662    87.454322    87.458559   -269.59783 -0.020152094 
    7440    682447.22    300.07378   -217.47788    89.241001    87.368433    87.528621    217.47788 -0.020103993 
    7460    683231.62    300.17406   -406.71834    89.245381    87.441726    87.551479    406.71834 -0.020055893 
    7480    683102.47    299.65648    -414.3334    89.249762    87.456105    87.516241     414.3334 -0.020007793 
    7500    682210.16    300.04829   -44.246216    89.254143    87.363955    87.489818    44.246216 -0.019959693 
    7520    682580.66    300.41735   -124.39514    89.258523    87.383059    87.513901    124.39514 -0.019911593 
    7540    683290.02    301.01084    4.0177515    89.262904    87.441471     87.54203   -4.0177515 -0.019863493 
    7560    682896.19    301.63215    8.6111715    89.267284    87.420466    87.508301   -8.6111715 -0.019815393 
    7580    683323.74    301.57195   -472.86667    89.271665    87.477869    87.501336    472.86667 -0.019767292 
    7600    683822.13    301.14033   -165.26343    89.276045    87.467054    87.571684    165.26343 -0.019719192 
    7620    683768.75    301.48159   -265.64334    89.280426    87.449138    87.578492    265.64334 -0.019671092 
    7640    684053.22    301.77452    38.763202    89.284807    87.523938    87.535754   -38.763202 -0.019622992 
    7660     683544.4    301.13585    227.97331    89.289187    87.533648    87.456649   -227.97331 -0.019574892 
    7680    683611.61    300.39595    49.425489    89.293568    87.504723    87.489867   -49.425489 -0.019526792 
    7700    683869.62    299.93324   -251.54152    89.297948    87.505948     87.51737    251.54152 -0.019478692 
    7720    683101.45    300.30046    99.061615    89.302329    87.444442    87.476261   -99.061615 -0.019430591 
    7740    682539.68    299.92209   -111.41984    89.306709    87.387195    87.457291    111.41984 -0.019382491 
    7760    682828.28    299.82626   -379.33915     89.31109    87.403903    87.473254    379.33915 -0.019334391 
    7780    682316.81    299.81788   -168.56106    89.315471    87.396141    87.411209    168.56106 -0.019286291 
    7800    682154.73    300.86866  -0.25171802    89.319851    87.391619     87.39068   0.25171802 -0.019238191 
    7820    682613.44     301.0494   -287.92329    89.324232    87.435731     87.40104    287.92329 -0.019190091 
    7840    681390.98    300.51149    131.53622    89.328612    87.356553    87.319311   -131.53622 -0.019141991 
    7860    681492.35    300.48462    -109.7256    89.332993    87.375877    87.308706     109.7256 -0.019093891 
    7880    681750.07    300.76116    -133.8017    89.337373    87.409711    87.303635     133.8017  -0.01904579 
    7900    681736.57    299.26829    123.06408    89.341754    87.433508    87.273867   -123.06408  -0.01899769 
    7920    682167.18    300.36273   -3.9081877    89.346135    87.471692    87.286589    3.9081877  -0.01894959 
    7940     682576.6    300.34096   -89.681331    89.350515    87.525585     87.28092    89.681331  -0.01890149 
    7960    682983.49    299.79231   -149.63696    89.354896    87.512272    87.341953    149.63696  -0.01885339 
    7980    684186.67    300.61492   -55.855903    89.359276    87.547652    87.456173    55.855903  -0.01880529 
    8000    684630.09    299.92595    7.6164537    89.363657    87.554644    87.501574   -7.6164537  -0.01875719 
    8020     685306.4    300.07971   -429.42604    89.368037    87.570685    87.567675    429.42604 -0.018709089 
    8040    685479.26    299.26381   -436.04168    89.372418    87.517454    87.638742    436.04168 -0.018660989 
    8060    684421.73    299.32479    367.02867    89.376799    87.433746    87.583018   -367.02867 -0.018612889 
    8080    684305.81    299.51805   -134.51394    89.381179    87.446466    87.551155    134.51394 -0.018564789 
    8100    683807.15    299.57074   -255.92667     89.38556    87.455679    87.473853    255.92667 -0.018516689 
    8120    683323.36     300.2301   -42.138384     89.38994    87.422288    87.441067    42.138384 -0.018468589 
    8140     683200.2    300.12005   -257.38941    89.394321    87.382147    87.461182    257.38941 -0.018420489 
    8160    682712.74    300.30831   -141.21604    89.398701    87.394943      87.3817    141.21604 -0.018372388 
    8180    682653.49    301.65051   -318.68867    89.403082    87.369212    87.395566    318.68867 -0.018324288 
    8200    683083.48    301.78157   -254.01108    89.407463    87.340162    87.475417    254.01108 -0.018276188 
    8220    683272.26    301.54426    181.76878    89.411843    87.350027    87.485424   -181.76878 -0.018228088 
    8240    684228.41    301.52719   -228.60678    89.416224    87.381129    87.572374    228.60678 -0.018179988 
    8260    684368.07     301.4093   -74.165247    89.420604    87.360852    87.606288    74.165247 -0.018131888 
    8280    684467.56    302.06284    -108.3568    89.424985    87.359252    87.616336     108.3568 -0.018083788 
    8300    685187.87    302.08744   -100.69299    89.429365    87.381677    87.681736    100.69299 -0.018035687 
    8320    684990.82    301.18836   -9.3264418    89.433746    87.341555    87.692492    9.3264418 -0.017987587 
    8340    684871.79    301.75182   -84.036268    89.438127    87.327295    87.687276    84.036268 -0.017939487 
    8360    685566.55    301.06285   -447.08801    89.442507    87.341054    87.758103    447.08801 -0.017891387 
    8380    684679.86    301.57221    9.0430798    89.446888    87.241706    87.740109   -9.0430798 -0.017843287 
    8400    684396.71    300.45789    130.44712    89.451268    87.261183    87.679955   -130.44712 -0.017795187 
    8420    684511.32     301.3567    94.109373    89.455649    87.210074    87.741734   -94.109373 -0.017747087 
    8440    683712.73    301.18972    -28.08007    89.460029    87.114321    87.731402     28.08007 -0.017698987 
    8460    683631.83     300.1869    -67.45973     89.46441    87.117409    87.713617     67.45973 -0.017650886 
    8480    684711.68    300.48907   -628.04281    89.468791    87.246732    87.717652    628.04281 -0.017602786 
    8500    684519.55     300.2497   -177.52418    89.473171    87.250012     87.68545    177.52418 -0.017554686 
    8520    685002.93    300.02587   -205.01746    89.477552    87.274264    87.718691    205.01746 -0.017506586 
    8540    684738.92    300.14246   -142.93156    89.481932    87.224511    87.730604    142.93156 -0.017458486 
    8560    684097.02    300.67718   -38.406642    89.486313     87.19924    87.669472    38.406642 -0.017410386 
    8580    684105.59    299.86693   -147.17384    89.490693    87.136285    87.729616    147.17384 -0.017362286 
    8600    683239.91    299.66097    81.872608    89.495074    87.023475    87.727888   -81.872608 -0.017314185 
    8620    683078.76    300.26521   -135.37486    89.499455    87.029386    87.696946    135.37486 -0.017266085 
    8640    682979.74    301.03031   -15.526653    89.503835    87.051215    87.657955    15.526653 -0.017217985 
    8660    683190.32    299.08918   -128.44547    89.508216    87.100102    87.631479    128.44547 -0.017169885 
    8680    683512.86    299.68239   -238.08418    89.512596    87.113695     87.65488    238.08418 -0.017121785 
    8700    684340.28    298.63757   -231.56167    89.516977    87.109764    87.760656    231.56167 -0.017073685 
    8720    684133.91    300.26537    298.95314    89.521357    87.098735    87.741005   -298.95314 -0.017025585 
    8740    684574.54    298.82725   -143.31751    89.525738    87.126246    87.765499    143.31751 -0.016977484 
    8760    684043.86    299.77144    148.13697    89.530119    87.084869    87.734839   -148.13697 -0.016929384 
    8780    683939.76    299.93094   -234.69315    89.534499    87.096778    87.705203    234.69315 -0.016881284 
    8800    683784.16    300.49322    -172.3078     89.53888    87.144518    87.632925     172.3078 -0.016833184 
    8820    683507.78    300.61977   -189.76319     89.54326    87.187436    87.550101    189.76319 -0.016785084 
    8840     683029.2    299.73822    80.176539    89.547641    87.177825    87.494166   -80.176539 -0.016736984 
    8860    683293.34    300.50782   -242.74446    89.552021    87.149793    87.551872    242.74446 -0.016688884 
    8880    683681.22    300.44953   -123.27532    89.556402    87.138688     87.60845    123.27532 -0.016640783 
    8900     683369.1    299.89954    299.13956    89.560783    87.109645    87.593366   -299.13956 -0.016592683 
    8920     683945.8    299.52269    105.20371    89.565163    87.176036    87.596236   -105.20371 -0.016544583 
    8940    684761.14    299.76531   -757.71487    89.569544    87.214418    87.657778    757.71487 -0.016496483 
    8960    684259.69    299.76444    -353.8902    89.573924     87.17777    87.626124     353.8902 -0.016448383 
    8980    684474.57    298.71446    145.28804    89.578305    87.163866    87.663335   -145.28804 -0.016400283 
    9000    684916.23    299.41544   -55.449269    89.582685    87.217348    87.661825    55.449269 -0.016352183 
    9020    684100.84    300.41585    124.92999    89.587066     87.21063    87.559926   -124.92999 -0.016304083 
    9040    683855.45    299.38648    13.570036    89.591447    87.221144    87.513688   -13.570036 -0.016255982 
    9060    684586.14    299.87851   -603.34176    89.595827    87.271781    87.552082    603.34176 -0.016207882 
    9080    684116.97     301.2285   -227.55628    89.600208    87.281596    87.477964    227.55628 -0.016159782 
    9100    684109.63    300.31357    66.394921    89.604588    87.295263    87.459054   -66.394921 -0.016111682 
    9120     683999.1    299.78672   -166.48558    89.608969    87.319638    87.416239    166.48558 -0.016063582 
    9140    683604.31    300.32739   -287.99513    89.613349    87.340519    87.340629    287.99513 -0.016015482 
    9160    683471.96    301.19851   -33.480088     89.61773    87.309394    87.350579    33.480088 -0.015967382 
    9180    683488.47    300.15336    66.331627    89.622111     87.32435    87.333459   -66.331627 -0.015919281 
    9200    683805.76    301.78387   -192.31806    89.626491    87.326584    87.367497    192.31806 -0.015871181 
    9220    683387.42    300.18523   -13.102572    89.630872    87.311152     87.32521    13.102572 -0.015823081 
    9240    683340.37    300.35489   -102.56971    89.635252    87.282836    87.343258    102.56971 -0.015774981 
    9260    683995.44    300.73627   -309.07221    89.639633    87.314065    87.391447    309.07221 -0.015726881 
    9280    684364.46    299.88487   -421.94662    89.644013    87.316251    87.432134    421.94662 -0.015678781 
    9300    684405.97    300.21841    393.36043    89.648394    87.345385    87.404001   -393.36043 -0.015630681 
    9320    685146.96    300.92594   -83.047409    89.652775    87.341465    87.498282    83.047409  -0.01558258 
    9340    684411.82    299.52735   -304.01676    89.657155    87.335392    87.406207    304.01676  -0.01553448 
    9360    684012.98    300.68052   -537.72904    89.661536    87.343468    87.342926    537.72904  -0.01548638 
    9380     683776.7    300.09459   -188.63178    89.665916    87.350595    87.301366    188.63178  -0.01543828 
    9400    684127.92    300.13109    15.433603    89.670297    87.369231    87.323311   -15.433603  -0.01539018 
    9420    683282.65     299.7189    615.86074    89.674677    87.310473    87.269851   -615.86074  -0.01534208 
    9440    683893.89     299.5436   -78.320633    89.679058    87.350546    87.303583    78.320633  -0.01529398 
    9460       684626    298.94431   -540.67439    89.683439    87.465066    87.278346    540.67439 -0.015245879 
    9480    684435.69     299.8901   -335.81255    89.687819    87.484449    87.230491    335.81255 -0.015197779 
    9500    684439.43     298.0673    157.50793      89.6922    87.501617    87.209594   -157.50793 -0.015149679 
    9520    685451.26    300.06804   -408.23982     89.69658    87.599344    87.236822    408.23982 -0.015101579 
    9540    685548.83    298.79859   -351.56452    89.700961    87.551364    87.292792    351.56452 -0.015053479 
    9560    685777.44    298.78229   -324.36358    89.705341    87.560591    87.308435    324.36358 -0.015005379 
    9580    685418.61    299.39812    257.46449    89.709722    87.534977    87.284024   -257.46449 -0.014957279 
    9600    685355.39    301.05513    149.00162    89.714103    87.446864    87.359649   -149.00162 -0.014909179 
    9620    686060.88    299.43887   -189.92228    89.718483    87.507233    87.384979    189.92228 -0.014861078 
    9640    685944.22    300.38372   -393.29893    89.722864     87.51385    87.359247    393.29893 -0.014812978 
    9660     686156.5    299.96971   -497.47309    89.727244    87.482732    87.413098    497.47309 -0.014764878 
    9680    686868.64    301.41923   -318.55661    89.731625    87.518148    87.464141    318.55661 -0.014716778 
    9700    686290.92    301.05415    375.20087    89.736005    87.436283    87.468127   -375.20087 -0.014668678 
    9720    686146.62    300.15054    269.49633    89.740386    87.348499     87.53335   -269.49633 -0.014620578 
    9740    686698.11    301.64825    -691.0492    89.744767    87.389487    87.558342     691.0492 -0.014572478 
    9760    685792.47    299.18449   -242.26298    89.749147    87.320201    87.507979    242.26298 -0.014524377 
    9780    686219.48     301.3954   -355.68035    89.753528     87.31123    87.567189    355.68035 -0.014476277 
    9800    686195.15    300.17681   -143.95902    89.757908    87.272087    87.599083    143.95902 -0.014428177 
    9820    685768.23    301.37778   -321.26859    89.762289    87.298102    87.514224    321.26859 -0.014380077 
    9840    685612.84     299.8406   -117.48987    89.766669    87.304571     87.48364    117.48987 -0.014331977 
    9860    686192.95    300.91547   -20.689037     89.77105    87.290419    87.567585    20.689037 -0.014283877 
    9880    685664.33    299.82613    444.46434    89.775431    87.268127    87.518206   -444.46434 -0.014235777 
    9900    686144.85    301.58308   -358.54497    89.779811    87.336139    87.507068    358.54497 -0.014187676 
    9920    686526.06    300.96793    -258.9163    89.784192    87.370358    87.517123     258.9163 -0.014139576 
    9940    685563.94    299.95698   -86.676106    89.788572    87.308507    87.452119    86.676106 -0.014091476 
    9960    685749.31    301.25512   -157.29355    89.792953    87.300558    87.479463    157.29355 -0.014043376 
    9980    685952.41    300.25735   -62.228729    89.797333    87.305539     87.49611    62.228729 -0.013995276 
   10000    685452.02    300.26301    43.939684    89.801714     87.34904    87.384479   -43.939684 -0.013947176 
   10020    685660.87    301.62678   -329.95488    89.806095    87.335651    87.420239    329.95488 -0.013899076 
   10040    684872.55    299.81555   -111.62622    89.810475    87.256099    87.395078    111.62622 -0.013850975 
   10060     684307.1    300.04332    -107.0235    89.814856    87.247108    87.327661     107.0235 -0.013802875 
   10080    684108.85    300.87613   -34.108226    89.819236    87.210728    87.334521    34.108226 -0.013754775 
   10100    684085.18    298.60851   -52.465444    89.823617     87.21205    87.325916    52.465444 -0.013706675 
   10120    683989.16    299.57685   -453.89303    89.827997     87.22406    87.297379    453.89303 -0.013658575 
   10140    683433.97    298.53881    24.959057    89.832378    87.150553    87.295833   -24.959057 -0.013610475 
   10160    683205.07     300.2502   -146.36541    89.836759    87.131699    87.281223    146.36541 -0.013562375 
   10180    683502.27    300.10523   -193.80002    89.841139    87.170179    87.276391    193.80002 -0.013514275 
   10200    683601.03    299.12376   -4.8056981     89.84552    87.096114     87.35897    4.8056981 -0.013466174 
   10220    684370.59    300.14695   -105.89746      89.8499    87.163448    87.385492    105.89746 -0.013418074 
   10240    685138.52    300.16358   -152.16201    89.854281    87.198436    87.444181    152.16201 -0.013369974 
   10260    685353.18    299.56321   -161.80144    89.858661     87.16545    87.500415    161.80144 -0.013321874 
   10280    685362.15    299.51483   -337.24213    89.863042     87.20447    87.458143    337.24213 -0.013273774 
   10300    684901.43    299.42596    13.211243    89.867423    87.239205    87.360294   -13.211243 -0.013225674 
   10320    685361.96    300.46395   -252.86188    89.871803    87.288436    87.365471    252.86188 -0.013177574 
   10340    685011.73    300.02387   -9.9954392    89.876184    87.280906    87.324104    9.9954392 -0.013129473 
   10360    684612.14    299.22023    204.08406    89.880564    87.231985    87.317854   -204.08406 -0.013081373 
   10380    684141.21     302.1501    100.80242    89.884945    87.209749    87.275783   -100.80242 -0.013033273 
   10400    684324.45    300.13908   -432.35049    89.889325    87.262614    87.242021    432.35049 -0.012985173 
   10420    684055.18    301.54525   -415.22736    89.893706     87.20285    87.263207    415.22736 -0.012937073 
   10440    684631.97    300.69118   -638.10173    89.898087    87.233636     87.30171    638.10173 -0.012888973 
   10460    684132.85    300.97519    140.68063    89.902467    87.202036    87.265425   -140.68063 -0.012840873 
   10480    684147.66    301.91016    328.23272    89.906848    87.208787    87.256307   -328.23272 -0.012792772 
   10500    684541.18    301.60675    298.59566    89.911228    87.237782    87.273227   -298.59566 -0.012744672 
   10520    684383.73    300.79659   -208.41796    89.915609    87.203667    87.283034    208.41796 -0.012696572 
   10540    684218.56    301.15712    -477.0676    89.919989    87.166098    87.295328     477.0676 -0.012648472 
   10560     684054.7    300.49742   -88.417681     89.92437    87.185389     87.25086    88.417681 -0.012600372 
   10580    684067.58    299.62567   -10.901315    89.928751    87.186833    87.246808    10.901315 -0.012552272 
   10600    684347.12     300.9951   -221.57364    89.933131    87.255601    87.209424    221.57364 -0.012504172 
   10620    684406.39    299.56635   -47.774341    89.937512    87.302851    87.165527    47.774341 -0.012456071 
   10640    684431.43    300.55598    235.42133    89.941892    87.213352     87.25392   -235.42133 -0.012407971 
   10660    684963.52    298.96993   -224.88622    89.946273    87.262904    87.267917    224.88622 -0.012359871 
   10680    684836.66    299.25841   -548.68013    89.950653    87.231553    87.278861    548.68013 -0.012311771 
   10700    684338.89    299.87774   -26.151626    89.955034    87.078517    87.364445    26.151626 -0.012263671 
   10720    684921.32     299.7626   -223.67455    89.959415    87.149429    87.363398    223.67455 -0.012215571 
   10740    685408.86    300.29644   -262.46042    89.963795    87.195795    87.374842    262.46042 -0.012167471 
   10760    685011.56    300.50054    276.92161    89.968176    87.129455    87.386429   -276.92161 -0.012119371 
   10780    685086.32    300.60709   -41.447294    89.972556    87.164811    87.356262    41.447294  -0.01207127 
   10800    684643.51    301.40264   -199.63262    89.976937    87.114478    87.345986    199.63262  -0.01202317 
   10820    684441.26    300.37114    14.943825    89.981317    87.062571     87.36799   -14.943825  -0.01197507 
   10840    684247.72    299.25073   -297.07723    89.985698      86.9944    87.407474    297.07723  -0.01192697 
   10860    684471.76     299.6618   -395.99633    89.990079    87.007112    87.419063    395.99633  -0.01187887 
   10880    684656.39    299.35171   -140.44896    89.994459    87.049999    87.395309    140.44896  -0.01183077 
   10900    684624.58    301.26471    80.175257     89.99884    87.069282    87.367642   -80.175257  -0.01178267 
   10920    684744.38    299.84085   -149.80594     90.00322    87.086182     87.36172    149.80594 -0.011734569 
   10940    684527.95    299.74558   -73.409352    90.007601    87.129252    87.286689    73.409352 -0.011686469 
   10960    684118.62    301.64182   -68.497619    90.011981      87.0223    87.337455    68.497619 -0.011638369 
   10980    684941.41    300.00362   -432.63686    90.016362     87.01233    87.448258    432.63686 -0.011590269 
   11000    684990.18    299.41926   -418.34059    90.020743    87.054049     87.40832    418.34059 -0.011542169 
   11020    684248.41    299.60793   -254.87163    90.025123    87.029947    87.333598    254.87163 -0.011494069 
   11040    684910.14    300.67954    202.15553    90.029504    87.130149    87.313277   -202.15553 -0.011445969 
   11060    685476.55    298.65987   -94.362038    90.033884    87.230104    87.281103    94.362038 -0.011397868 
   11080    685563.37    301.27613    -192.7311    90.038265    87.209683    87.308349     192.7311 -0.011349768 
   11100       685742    299.79662   -328.57213    90.042645    87.234196    87.302312    328.57213 -0.011301668 
   11120    685456.51     300.1019      89.3068    90.047026     87.25869    87.237225     -89.3068 -0.011253568 
   11140    686375.37    300.41367   -491.26563    90.051407    87.325317    87.283272    491.26563 -0.011205468 
   11160    686670.86    299.79918   -25.204771    90.055787    87.286084    87.355848    25.204771 -0.011157368 
   11180    686229.09    300.36137    -229.3896    90.060168    87.262203     87.31929     229.3896 -0.011109268 
   11200    687072.49    299.61987   -153.63701    90.064548    87.331271    87.353218    153.63701 -0.011061167 
   11220    687887.66    299.08935    136.34113    90.068929    87.371196    87.412641   -136.34113 -0.011013067 
   11240    687466.65    300.63414    202.28674    90.073309     87.29084    87.435307   -202.28674 -0.010964967 
   11260    688479.03    299.79161    -512.0792     90.07769    87.375465    87.475005     512.0792 -0.010916867 
   11280    687958.67    298.81019   -453.84544    90.082071    87.323225    87.456928    453.84544 -0.010868767 
   11300     687933.8    300.02547   -392.98654    90.086451    87.355865    87.416839    392.98654 -0.010820667 
   11320    688503.28    299.77937    -214.8741    90.090832    87.467594      87.3732     214.8741 -0.010772567 
   11340    688151.41    299.03416    113.74647    90.095212    87.457884    87.333995   -113.74647 -0.010724467 
   11360    688243.35    299.88233    -179.0563    90.099593    87.453795      87.3455     179.0563 -0.010676366 
   11380    688312.05     299.3928   -207.61818    90.103973    87.538787    87.265164    207.61818 -0.010628266 
   11400    687439.55    300.97864   -414.44796    90.108354    87.469988    87.218857    414.44796 -0.010580166 
   11420    686891.63    299.59141   -90.720582    90.112735    87.393782    87.221092    90.720582 -0.010532066 
   11440    687040.94    299.51196    96.069187    90.117115    87.372723    87.256836   -96.069187 -0.010483966 
   11460       686772    300.08861   -155.99816    90.121496    87.325815    87.265291    155.99816 -0.010435866 
   11480       687053    299.63792   -225.06492    90.125876    87.357346    87.265244    225.06492 -0.010387766 
   11500    687036.29    299.77784    30.130812    90.130257     87.36911    87.247132   -30.130812 -0.010339665 
   11520    687026.42    299.50837   -293.42906    90.134637     87.34837    87.262352    293.42906 -0.010291565 
   11540    687157.92    299.93295   -546.01791    90.139018    87.342134    87.281044    546.01791 -0.010243465 
   11560    686527.92    300.47256    109.61935    90.143399    87.242852    87.296016   -109.61935 -0.010195365 
   11580    687282.72    300.35709   -237.66677    90.147779    87.299134    87.331407    237.66677 -0.010147265 
   11600    688346.63    300.36508   -252.74759     90.15216    87.401685    87.359724    252.74759 -0.010099165 
   11620    687772.27    301.95549    25.251147     90.15654    87.374211    87.310033   -25.251147 -0.010051065 
   11640    687133.04    299.95228     68.55618    90.160921    87.327024    87.271779    -68.55618 -0.010002964 
   11660     687222.1    299.27958    67.059471    90.165301    87.332486    87.273391   -67.059471 -0.0099548643 
   11680     687366.7    300.87175   -326.36381    90.169682     87.34524    87.274769    326.36381 -0.0099067642 
   11700    687604.63    300.21549   -315.55832    90.174063    87.419535    87.226543    315.55832 -0.0098586641 
   11720    687820.18    299.98356   -585.58184    90.178443    87.417277    87.251903    585.58184 -0.0098105639 
   11740    687442.03    300.83791   -369.59025    90.182824    87.360111    87.256758    369.59025 -0.0097624638 
   11760    687570.77    299.21502   -130.42708    90.187204    87.399241    87.229789    130.42708 -0.0097143636 
   11780    687828.78    299.90954    380.97986    90.191585    87.388606    87.268902   -380.97986 -0.0096662635 
   11800    687755.78    299.69564    111.56866    90.195965     87.37518     87.26881   -111.56866 -0.0096181634 
   11820    687979.47    298.63989   -225.18884    90.200346    87.390552    87.277599    225.18884 -0.0095700632 
   11840     687957.6     299.4928   -339.59804    90.204727    87.348043    87.313058    339.59804 -0.0095219631 
   11860    687787.82    298.67359   -501.12058    90.209107    87.299692    87.335615    501.12058 -0.009473863 
   11880    687777.32    301.03483   -130.64355    90.213488    87.281521    87.348222    130.64355 -0.0094257628 
   11900    687672.94    299.59275   -176.47636    90.217868    87.273037    87.339215    176.47636 -0.0093776627 
   11920    687202.58     300.1361    68.640905    90.222249    87.283237    87.265039   -68.640905 -0.0093295625 
   11940    687114.09    300.13634   -92.566232    90.226629    87.309143    87.223677    92.566232 -0.0092814624 
   11960    687212.68    299.03895   -148.80207     90.23101    87.265201    87.275882    148.80207 -0.0092333623 
   11980    686672.54    299.95241   -83.884796    90.235391    87.238613    87.229629    83.884796 -0.0091852621 
   12000    686411.23    299.57615   -107.62928    90.239771     87.25327    87.177554    107.62928 -0.009137162 
   12020    686765.08    299.20571   -1.3823348    90.244152    87.260302    87.211233    1.3823348 -0.0090890618 
   12040    686838.03    298.88339   -118.18332    90.248532    87.247743    87.228817    118.18332 -0.0090409617 
   12060    686508.36    299.93201   -213.57271    90.252913    87.167079    87.263396    213.57271 -0.0089928616 
   12080    686292.26    298.32254   -291.35895    90.257293    87.116631    87.282208    291.35895 -0.0089447614 
   12100    686067.07    298.64556   -81.536316    90.261674    87.090456    87.275556    81.536316 -0.0088966613 
   12120    686122.57    299.20502   -62.162268    90.266055    87.104063    87.264747    62.162268 -0.0088485612 
   12140    686371.83    299.53688   -246.52775    90.270435    87.100931    87.295351    246.52775 -0.008800461 
   12160    686048.28     298.9338   -87.391322    90.274816    87.063473    87.287505    87.391322 -0.0087523609 
   12180    686268.55    299.77571    158.77824    90.279196    87.081527    87.293193   -158.77824 -0.0087042607 
   12200     686660.5    299.84896   -328.09459    90.283577    87.090384    87.329928    328.09459 -0.0086561606 
   12220    686501.25    299.92029   -406.07202    90.287957    87.102645    87.293148    406.07202 -0.0086080605 
   12240    686178.27    301.09219    42.663686    90.292338    87.109338    87.241144   -42.663686 -0.0085599603 
   12260    686669.61    299.56215   -171.61718    90.296719    87.112647    87.296061    171.61718 -0.0085118602 
   12280     687082.1    300.33206   -477.05292    90.301099    87.120419    87.336471    477.05292 -0.0084637601 
   12300    686332.48    302.31561   -12.111294     90.30548    87.100411    87.256994    12.111294 -0.0084156599 
   12320    686738.54    300.21479   -221.79568     90.30986    87.111688     87.29308    221.79568 -0.0083675598 
   12340    686964.87     301.7313   -36.757888    90.314241    87.111069    87.318235    36.757888 -0.0083194596 
   12360    686926.06    300.49759   -239.19549    90.318621    87.154424    87.265636    239.19549 -0.0082713595 
   12380    687256.82    301.70858   -130.79776    90.323002    87.199831    87.257959    130.79776 -0.0082232594 
   12400    687521.32    301.06748   -355.70486    90.327383    87.254431    87.232688    355.70486 -0.0081751592 
   12420    686978.98    300.32995    -113.9922    90.331763    87.211358    87.202696     113.9922 -0.0081270591 
   12440    687138.46    299.59132   -180.73883    90.336144    87.146014    87.284108    180.73883 -0.008078959 
   12460    687202.09    299.30362   -116.22111    90.340524     87.15918    87.274773    116.22111 -0.0080308588 
   12480    687334.52    300.99876   -658.26518    90.344905    87.214951    87.231542    658.26518 -0.0079827587 
   12500    687560.75    298.24259    15.819928    90.349285    87.238725    87.232245   -15.819928 -0.0079346585 
   12520    687543.81    300.34605    6.4566205    90.353666    87.237401     87.22719   -6.4566205 -0.0078865584 
   12540    687817.93    299.84735   -5.4610629    90.358047    87.228949    87.266191    5.4610629 -0.0078384583 
   12560    688109.56    299.39302   -202.13219    90.362427    87.237888    87.290014    202.13219 -0.0077903581 
   12580     687346.1    300.28296   -161.20628    90.366808    87.201869    87.224952    161.20628 -0.007742258 
   12600    687577.51    299.60889   -455.64331    90.371188    87.244302    87.207653    455.64331 -0.0076941579 
   12620    687675.65    299.44088    17.249644    90.375569    87.250665    87.209512   -17.249644 -0.0076460577 
   12640    687622.68    299.71808   -134.96481    90.379949    87.298542    87.150745    134.96481 -0.0075979576 
   12660    687828.64    299.96511   -257.49758     90.38433    87.272098    87.199038    257.49758 -0.0075498574 
   12680     688136.3    297.91001   -307.63173    90.388711    87.232229    87.273684    307.63173 -0.0075017573 
   12700    687561.53    301.96213    231.67944    90.393091    87.211426    87.217361   -231.67944 -0.0074536572 
   12720    688046.54    300.32688   -225.50228    90.397472    87.211152    87.274929    225.50228 -0.007405557 
   12740    688069.99    300.83511   -128.26982    90.401852    87.182641    87.302216    128.26982 -0.0073574569 
   12760    687846.93     300.9625   -320.70613    90.406233    87.146921    87.305454    320.70613 -0.0073093568 
   12780    687889.33    301.80449   -433.33997    90.410613    87.069587    87.384151    433.33997 -0.0072612566 
   12800    687983.63    300.53665   -395.73939    90.414994    86.999327    87.462473    395.73939 -0.0072131565 
   12820    688381.88    301.57643   -187.99924    90.419375     86.98367    87.524613    187.99924 -0.0071650563 
   12840     688243.3    301.22421    215.49855    90.423755    86.951317    87.535313   -215.49855 -0.0071169562 
   12860    687939.16    301.46289    -39.59954    90.428136    86.919258    87.524662     39.59954 -0.0070688561 
   12880    688104.26    301.94206   -691.32322    90.432516    86.894179    87.566692    691.32322 -0.0070207559 
   12900    687732.13    300.49467   -459.67049    90.436897    86.795492    87.614602    459.67049 -0.0069726558 
   12920    687338.91    300.65475   -374.44238    90.441277    86.810632    87.544995    374.44238 -0.0069245556 
   12940    687022.34    301.14153    179.82735    90.445658    86.823073    87.487899   -179.82735 -0.0068764555 
   12960    686715.41    300.80688      198.991    90.450039    86.806166    87.461609     -198.991 -0.0068283554 
   12980    686158.95    300.16936    79.288849    90.454419    86.790381    87.402398   -79.288849 -0.0067802552 
   13000    686779.37    300.53647   -440.65226      90.4588    86.841891    87.425303    440.65226 -0.0067321551 
   13020    686461.78    299.90268    -480.6348     90.46318    86.849539    87.372948     480.6348 -0.006684055 
   13040    686384.61    299.43557   -161.19242    90.467561    86.853079    87.355335    161.19242 -0.0066359548 
[...]
  396740    1037099.3    300.00979   -103.99003    174.50882    76.731029    77.451876    103.99003   0.91616519 
  396760    1036912.1    298.66414    43.255889     174.5132    76.735099    77.431839   -43.255889   0.91621329 
  396780    1036821.6     299.5869   -204.21421    174.51758    76.773747    77.384163    204.21421   0.91626139 
  396800    1037561.1    298.49961   -186.78826    174.52197    76.851718    77.358848    186.78826   0.91630949 
  396820      1038447    300.80047   -153.34295    174.52635    76.936124    77.338018    153.34295   0.91635759 
  396840    1038645.1    297.97655   -310.88408    174.53073    76.899428    77.387742    310.88408   0.91640569 
  396860    1038402.3    299.51232   -107.81883    174.53511    76.901558    77.365563    107.81883   0.91645379 
  396880    1038041.2    299.15005    12.908477    174.53949    76.935898      77.3022   -12.908477   0.91650189 
  396900    1038668.1    300.33895    1.7510162    174.54387    76.907567    77.375441   -1.7510162   0.91654999 
  396920    1038586.6     299.5074    42.898922    174.54825    76.903063    77.371955   -42.898922   0.91659809 
  396940    1038408.8    299.68074   -36.553467    174.55263    76.840543     77.41971    36.553467   0.91664619 
  396960    1038950.2    299.60158   -269.36467    174.55701    76.843169    77.455481    269.36467   0.91669429 
  396980    1037907.6    299.89115   -260.27408    174.56139    76.827243    77.391855    260.27408   0.91674239 
  397000    1037258.2    300.84837   -426.57993    174.56577     76.81319    77.355638    426.57993   0.91679049 
  397020    1036600.1    301.02865   -59.605143    174.57015    76.774863    77.343214    59.605143   0.91683859 
  397040    1036425.5    302.01479   -19.335871    174.57453    76.820038    77.282768    19.335871   0.91688669 
  397060    1036129.4    300.86951    132.24409    174.57891    76.779096    77.299949   -132.24409   0.91693479 
  397080    1036708.3    301.35987   -170.87426    174.58329    76.826395    77.293585    170.87426   0.91698289 
  397100    1035301.3    301.94716    226.48299    174.58767     76.81895    77.194225   -226.48299   0.91703099 
  397120    1035918.2    301.17128     65.43108    174.59205    76.823673    77.233537    -65.43108   0.91707909 
  397140      1036708    301.16626   -517.54342    174.59643    76.828124    77.286004    517.54342   0.91712719 
  397160    1035880.1    300.42102   -223.48067    174.60082    76.797561    77.253076    223.48067   0.91717529 
  397180    1035853.7    301.48185   -209.47464     174.6052    76.777056    77.269805    209.47464   0.91722339 
  397200      1036727    299.94527   -62.791167    174.60958    76.859383     77.25017    62.791167   0.91727149 
  397220    1035835.4    299.97089    235.10569    174.61396     76.79795    77.243537   -235.10569   0.91731959 
  397240    1036292.9    300.58515    148.07149    174.61834    76.804761    77.268863   -148.07149   0.91736769 
  397260    1037262.7    299.88152   -157.50355    174.62272    76.847251    77.296476    157.50355   0.91741579 
  397280    1037418.4    298.71675   -329.77478     174.6271    76.887997     77.26517    329.77478   0.91746389 
  397300    1037571.9    299.92381   -390.63103    174.63148    76.843372    77.319536    390.63103   0.91751199 
  397320    1036980.9    299.39466   -95.309062    174.63586    76.789562    77.327709    95.309062   0.91756009 
  397340    1037236.2    300.44021   -135.11773    174.64024      76.7869     77.34749    135.11773   0.91760819 
  397360    1038080.3    300.47982   -15.703368    174.64462    76.810535    77.384673    15.703368   0.91765629 
  397380    1036848.6    299.52849    383.80748      174.649    76.783031    77.318603   -383.80748   0.91770439 
  397400    1036781.1    300.61317    174.22915    174.65338    76.753077    77.341797   -174.22915   0.91775249 
  397420    1037309.4    301.23968   -135.10972    174.65776    76.805329    77.326626    135.10972   0.91780059 
  397440    1037342.3    299.35418   -308.63552    174.66214    76.785296    77.347311    308.63552   0.91784869 
  397460    1037762.5     300.4668   -272.57796    174.66652    76.779947    77.382099    272.57796   0.91789679 
  397480    1038848.4    299.60556   -83.605671     174.6709    76.736193     77.50529    83.605671   0.91794489 
  397500    1040142.9    299.54444   -17.859364    174.67529    76.779933    77.555715    17.859364   0.91799299 
  397520    1040234.1    300.72618    143.00541    174.67967    76.734564    77.606431   -143.00541   0.91804109 
  397540    1039632.3    299.27616    177.02159    174.68405    76.727351    77.566876   -177.02159   0.91808919 
  397560    1039369.5    300.98105   -225.96086    174.68843    76.668246     77.60511    225.96086   0.91813729 
  397580    1039218.5    299.57251    -116.9035    174.69281    76.632147    77.628442     116.9035   0.91818539 
  397600    1038697.5    300.12805   -41.643346    174.69719    76.623597    77.596229    41.643346   0.91823349 
  397620    1039646.3    300.65796   -337.73351    174.70157    76.650327    77.638082    337.73351   0.91828159 
  397640    1039547.2    300.57458   -106.00579    174.70595    76.605548    77.674112    106.00579   0.91832969 
  397660    1038394.9    300.99675   0.39442879    174.71033    76.567098    77.625028  -0.39442879   0.91837779 
  397680    1037264.1    301.89712    249.21323    174.71471    76.571523     77.53407   -249.21323   0.91842589 
  397700    1038362.1    301.26138   -13.105242    174.71909    76.611764    77.573429    13.105242   0.91847399 
  397720    1038613.3    300.51927    121.65131    174.72347    76.617809    77.584133   -121.65131    0.9185221 
  397740    1039952.4    301.27187   -169.16916    174.72785     76.67501    77.624258    169.16916    0.9185702 
  397760    1040535.3    301.18979   -350.46652    174.73223    76.706618    77.633819    350.46652    0.9186183 
  397780    1040198.1    299.97439   -381.49871    174.73661      76.6925    77.621005    381.49871    0.9186664 
  397800      1039578    301.70564   -132.39948    174.74099    76.663293    77.602335    132.39948    0.9187145 
  397820    1038489.6    300.47546    182.87647    174.74537    76.583202    77.600217   -182.87647    0.9187626 
  397840    1038540.6    300.32131    251.65631    174.74975    76.661295    77.523035   -251.65631    0.9188107 
  397860    1039794.7    300.95357    -259.3797    174.75414    76.738593    77.536521     259.3797    0.9188588 
  397880      1038292    300.06702    65.071622    174.75852    76.680499    77.481177   -65.071622    0.9189069 
  397900    1038386.9    300.60777   -151.96304     174.7629    76.666824    77.500145    151.96304     0.918955 
  397920    1039025.8     299.0279   -183.94473    174.76728    76.657417      77.5554    183.94473    0.9190031 
  397940    1039821.1    299.97221   -55.286693    174.77166    76.671163    77.598898    55.286693    0.9190512 
  397960    1039319.9    299.80443   -95.360779    174.77604    76.705087    77.525254    95.360779    0.9190993 
  397980    1038059.1     299.6961    79.344178    174.78042    76.679927     77.45467   -79.344178    0.9191474 
  398000    1038007.3    298.76035    54.265875     174.7848    76.692509    77.436158   -54.265875    0.9191955 
  398020    1039049.9    299.41084   -102.84422    174.78918    76.747475     77.45648    102.84422    0.9192436 
  398040    1038333.9    299.93172    49.429191    174.79356    76.760006    77.388528   -49.429191    0.9192917 
  398060      1037864    300.12563    -154.6843    174.79794    76.724215     77.38765     154.6843    0.9193398 
  398080    1037438.6    298.21046    -40.26868    174.80232    76.674513    77.404137     40.26868    0.9193879 
  398100    1038478.3    299.34542    -320.6142     174.8067    76.718378    77.435471     320.6142     0.919436 
  398120    1038394.4    300.48117   -14.179949    174.81108    76.722475    77.423136    14.179949    0.9194841 
  398140    1038062.1    300.66439    28.487977    174.81546    76.769099    77.349417   -28.487977    0.9195322 
  398160    1037674.1    298.72112    216.93454    174.81984    76.762526    77.325192   -216.93454    0.9195803 
  398180    1039445.4     299.8344   -232.99078    174.82422    76.849224     77.36786    232.99078    0.9196284 
  398200    1039155.2    300.48515   -159.83502    174.82861    76.874101     77.31929    159.83502    0.9196765 
  398220    1038079.4    300.65547    -227.7808    174.83299    76.856066    77.255436     227.7808    0.9197246 
  398240    1038399.2     299.8337   -52.339194    174.83737    76.852829    77.280558    52.339194    0.9197727 
  398260    1038407.3    300.31947   0.47446493    174.84175    76.853382    77.278662  -0.47446493    0.9198208 
  398280    1037001.1    300.63339    53.415581    174.84613    76.799701    77.226025   -53.415581    0.9198689 
  398300    1036751.1    301.86396     55.01999    174.85051    76.835473    77.169529    -55.01999     0.919917 
  398320    1036906.8    300.24121   -155.58556    174.85489    76.831627    77.183042    155.58556    0.9199651 
  398340    1037640.7    301.54442   -220.22672    174.85927     76.76614    77.301627    220.22672    0.9200132 
  398360    1039159.4    301.98663   -290.21038    174.86365    76.827051    77.351451    290.21038    0.9200613 
  398380      1039315    300.46738   -48.478893    174.86803    76.843856     77.34418    48.478893    0.9201094 
  398400    1039941.2    301.90806   -25.009792    174.87241    76.875561    77.356924    25.009792    0.9201575 
  398420    1039619.4    300.15175    206.70923    174.87679    76.886967    77.319579   -206.70923    0.9202056 
  398440      1039399    300.72512   -5.4937002    174.88117    76.865281    77.323055    5.4937002    0.9202537 
  398460      1038950    301.20818    59.759244    174.88555    76.787176    77.366334   -59.759244    0.9203018 
  398480      1038813    300.13604   -277.76227    174.88993     76.81343    77.327758    277.76227    0.9203499 
  398500    1038376.7    299.13156   -178.79155    174.89431     76.79501     77.31188    178.79155     0.920398 
  398520    1038582.3    299.95834   -215.84307    174.89869    76.788726    77.331584    215.84307    0.9204461 
  398540    1038576.2    299.60023    15.521112    174.90307    76.782947    77.335013   -15.521112    0.9204942 
  398560    1038900.6    299.56634   -12.591396    174.90746    76.775254    77.364978    12.591396    0.9205423 
  398580    1038067.3    299.78176     56.60115    174.91184    76.715197    77.361502    -56.60115    0.9205904 
  398600    1037634.6    299.91767    23.206041    174.91622    76.723138     77.31932   -23.206041    0.9206385 
  398620    1038542.3    300.45418   -251.62317     174.9206    76.761783    77.346055    251.62317    0.9206866 
  398640    1038044.7    299.90343   -335.97507    174.92498    76.753429    77.315477    335.97507    0.9207347 
  398660    1037192.6    299.77032   -121.03124    174.92936    76.735908    77.267716    121.03124    0.9207828 
  398680    1037288.6    300.45121    46.439146    174.93374    76.742216    77.266579   -46.439146    0.9208309 
  398700    1036095.5    299.49952    191.66216    174.93812    76.656702    77.261868   -191.66216     0.920879 
  398720    1035503.4    300.30238    112.08475     174.9425    76.603425    77.269485   -112.08475    0.9209271 
  398740    1035512.1      299.393   -115.28436    174.94688    76.605094    77.266516    115.28436    0.9209752 
  398760    1035968.2    299.43426   -303.27931    174.95126    76.642059    77.261331    303.27931    0.9210233 
  398780    1036014.1    299.78496   -72.274768    174.95564    76.665969    77.238723    72.274768    0.9210714 
  398800    1036885.9    298.41534   -181.51278    174.96002    76.669901    77.297818    181.51278    0.9211195 
  398820      1036435    299.37578   -274.85948     174.9644    76.661924    77.270313    274.85948    0.9211676 
  398840    1036861.4    298.79379   -84.365668    174.96878     76.67302    77.288977    84.365668    0.9212157 
  398860    1037299.9     298.6822    22.738704    174.97316    76.704172    77.288325   -22.738704    0.9212638 
  398880      1037334    299.54651   -30.971244    174.97754    76.724573    77.268381    30.971244    0.9213119 
  398900    1037872.7    298.10212   -56.059204    174.98193    76.773715     77.25709    56.059204      0.92136 
  398920    1037626.9    298.36171   -80.802605    174.98631    76.785045    77.225458    80.802605    0.9214081 
  398940    1037274.5    298.49064   -292.71481    174.99069      76.7853    77.197044    292.71481    0.9214562 
  398960    1036771.5    298.18237   -190.66948    174.99507    76.694965    77.248557    190.66948    0.9215043 
  398980    1037544.1    297.17182   -272.62278    174.99945    76.664861    77.334542    272.62278    0.9215524 
  399000    1037678.2    299.55741   -80.939539    175.00383      76.6877    77.319572    80.939539    0.9216005 
  399020    1038795.9    300.17538   -112.41871    175.00821    76.688804    77.399801    112.41871    0.9216486 
  399040      1037249    298.53272     6.713122    175.01259     76.65177    77.319944    -6.713122    0.9216967 
  399060    1036900.1    300.66628   -200.73981    175.01697    76.665028    77.278634    200.73981    0.9217448 
  399080    1037429.5    299.31581   -180.54936    175.02135    76.649996    77.331321    180.54936    0.9217929 
  399100    1037336.4    300.21368   -182.86735    175.02573    76.583071    77.390018    182.86735     0.921841 
  399120    1037278.4    298.98695    -146.5776    175.03011     76.55666    77.410451     146.5776    0.9218891 
  399140    1037384.5    300.64578   -221.59843    175.03449    76.545141    77.428079    221.59843    0.9219372 
  399160    1036818.5      300.301    88.689437    175.03887     76.52446    77.404809   -88.689437    0.9219853 
  399180      1037308    299.78332   -28.459637    175.04325    76.533144    77.430629    28.459637   0.92203341 
  399200    1037327.2      300.733   -33.705513    175.04763    76.512715    77.450801    33.705513   0.92208151 
  399220    1036524.1    301.21242    173.48344    175.05201    76.507283    77.394398   -173.48344   0.92212961 
  399240    1037482.5    301.32962   -107.49136    175.05639    76.558943    77.411749    107.49136   0.92217771 
  399260    1036342.3    301.35251    35.488303    175.06078     76.53128    77.352689   -35.488303   0.92222581 
  399280    1036443.2    299.71566   -186.54613    175.06516    76.553639     77.33569    186.54613   0.92227391 
  399300    1036996.3    299.79888   -529.38201    175.06954    76.566523    77.361998    529.38201   0.92232201 
  399320    1036223.8    299.93164   -123.03493    175.07392    76.539088    77.330144    123.03493   0.92237011 
  399340    1037300.1    299.70013   -198.51462     175.0783    76.602924    77.344027    198.51462   0.92241821 
  399360    1037504.8     300.1368     190.4592    175.08268    76.594186    77.366175    -190.4592   0.92246631 
  399380    1036978.7    299.80561    80.339696    175.08706    76.523153     77.39679   -80.339696   0.92251441 
  399400    1036712.1    298.42279    -157.9734    175.09144    76.482114    77.416471     157.9734   0.92256251 
  399420    1036829.1    298.83434   -317.07078    175.09582    76.531435    77.373378    317.07078   0.92261061 
  399440      1037124    299.90456   -278.23266     175.1002    76.606174    77.317939    278.23266   0.92265871 
  399460    1037270.4    298.54881    35.369143    175.10458    76.608934    77.324136   -35.369143   0.92270681 
  399480    1037574.6    299.00223   -138.18295    175.10896    76.605405    77.348438    138.18295   0.92275491 
  399500    1038138.5    298.14599   -281.35477    175.11334     76.64996    77.343551    281.35477   0.92280301 
  399520      1037899    299.14302   -103.59291    175.11772    76.590604      77.3837    103.59291   0.92285111 
  399540    1036386.1    300.71303    264.02577     175.1221    76.528359    77.331818   -264.02577   0.92289921 
  399560    1037270.6    298.38465    74.486581    175.12648    76.606954    77.316477   -74.486581   0.92294731 
  399580    1037950.4    299.98131   -267.23476    175.13086    76.576547     77.39593    267.23476   0.92299541 
  399600    1037265.2    299.82785   -282.48991    175.13525    76.580371    77.339045    282.48991   0.92304351 
  399620    1037612.9    299.36629   -201.87623    175.13963    76.586384    77.356953    201.87623   0.92309161 
  399640    1038607.2    300.63935   -271.83663    175.14401    76.570613    77.445093    271.83663   0.92313971 
  399660    1038128.6    299.40815    210.76268    175.14839    76.553131    77.425148   -210.76268   0.92318781 
  399680    1039222.3    298.97331    5.3240729    175.15277    76.630196    77.426836   -5.3240729   0.92323591 
  399700    1039713.5    300.19673   -283.97389    175.15715     76.64144    77.450135    283.97389   0.92328401 
  399720    1038729.8    300.47545     3.068542    175.16153    76.636668    77.379738    -3.068542   0.92333211 
  399740    1039833.8    299.70556   -145.19478    175.16591    76.636787    77.459925    145.19478   0.92338021 
  399760    1041598.5    300.12024   -348.61898    175.17029     76.74915    77.475843    348.61898   0.92342831 
  399780    1041333.4    299.01146   -109.03931    175.17467    76.775018    77.428095    109.03931   0.92347641 
  399800    1041441.3    302.01679    3.0400126    175.17905    76.745986    77.463474   -3.0400126   0.92352451 
  399820    1041748.9     299.8042     110.4949    175.18343    76.813978    77.415825    -110.4949   0.92357261 
  399840    1041434.9    300.17702    -129.0075    175.18781    76.817789    77.386723     129.0075   0.92362071 
  399860      1040879    300.73645   -11.168107    175.19219    76.740746    77.421124    11.168107   0.92366881 
  399880    1040970.6    299.31731   -44.444089    175.19657    76.767952    77.398565    44.444089   0.92371691 
  399900      1040640    300.86184   -190.81607    175.20095     76.77738    77.362545    190.81607   0.92376501 
  399920    1040379.1    299.90635   -159.09379    175.20533    76.768969    77.349691    159.09379   0.92381311 
  399940    1041204.2    299.07536   -183.23583    175.20971    76.853947    77.323509    183.23583   0.92386121 
  399960      1040920    299.79119   -104.73701     175.2141    76.807475    77.347238    104.73701   0.92390931 
  399980    1040887.6    299.28827    110.93291    175.21848    76.782908    77.367642   -110.93291   0.92395741 
  400000    1041053.7    298.63366   -87.548535    175.22286    76.790707    77.370197    87.548535   0.92400551 
Loop time of 30389.3 on 64 procs for 400000 steps with 72040 atoms

Performance: 1.137 ns/day, 21.104 hours/ns, 13.163 timesteps/s
99.8% CPU use with 64 MPI tasks x 1 OpenMP threads

MPI task timing breakdown:
Section |  min time  |  avg time  |  max time  |%varavg| %total
---------------------------------------------------------------
Pair    | 3958.5     | 8501.1     | 11930      |2248.1 | 27.97
Bond    | 256.43     | 499.63     | 643.98     | 443.0 |  1.64
Kspace  | 866.69     | 4446       | 9232.3     |3254.9 | 14.63
Neigh   | 15962      | 16009      | 16045      |  19.8 | 52.68
Comm    | 670.48     | 721.79     | 785.75     | 113.4 |  2.38
Output  | 8.7943     | 8.9594     | 9.3579     |   2.9 |  0.03
Modify  | 160.7      | 179.79     | 202.68     |  70.3 |  0.59
Other   |            | 22.56      |            |       |  0.07

Nlocal:        1125.62 ave        1745 max           0 min
Histogram: 7 2 2 1 2 8 7 8 14 13
Nghost:        12587.2 ave       18203 max        4603 min
Histogram: 6 6 3 1 0 13 19 0 0 16
Neighs:       852924.0 ave 1.55892e+06 max           0 min
Histogram: 10 4 0 4 5 9 8 10 7 7

Total # of neighbors = 54587115
Ave neighs/atom = 757.73341
Ave special neighs/atom = 5.9972238
Neighbor list builds = 400000
Dangerous builds not checked
Total wall time: 8:26:33
