LAMMPS (29 Oct 2020)
OMP_NUM_THREADS environment is not set. Defaulting to 1 thread. (../comm.cpp:94)
  using 1 OpenMP thread(s) per MPI task
####################################################
#    This program is free software: you can redistribute it and/or modify
#    it under the terms of the GNU General Public License as published by
#    the Free Software Foundation, either version 3 of the License, or
#    (at your option) any later version.
#
#    This program is distributed in the hope that it will be useful,
#    but WITHOUT ANY WARRANTY; without even the implied warranty of
#    MERCHANTABILITY or FITNESS FOR A PARTICULAR PURPOSE.  See the
#    GNU General Public License for more details.


units		real        ## defines the units style used herein. More information: https://docs.lammps.org/units.html
atom_style	full        ## defines the atom style used herein. More information: https://docs.lammps.org/atom_style.html

# Styles
pair_style      lj/cut/coul/long 15.0 10.0      ## sets the formula(s) LAMMPS uses to compute pairwise interactions; here, lennard-jones (LJ) with long-range Coulomb interaction. More: https://docs.lammps.org/pair_lj_cut_coul.html
pair_modify     shift no                        ## the shift keyword determines whether a Lennard-Jones potential is shifted at its cutoff to 0.0. More: https://docs.lammps.org/pair_modify.html
kspace_style    pppm 1.0e-4                     ## defines a long-range solver for LAMMPS to compute long-range Coulombic interactions. Note: requires use of a matching pair style, i.e. PPPM with coul/long. More: https://docs.lammps.org/kspace_style.html
bond_style      harmonic                        ## defined based off the forcefield used to construct the system; models the atoms' interactions
angle_style     harmonic
dihedral_style  opls
improper_style  cvff
special_bonds   lj 0 0 1 coul 0 0 1

read_data       100K_PMP.lmps      ## input lammps datafile, equilibriated until structure nears experimental properties
Reading data file ...
  orthogonal box = (82.411864 82.411864 82.411864) to (167.58814 167.58814 167.58814)
  4 by 4 by 4 MPI processor grid
  reading atoms ...
  72040 atoms
  reading velocities ...
  72040 velocities
  scanning bonds ...
  2 = max bonds/atom
  scanning angles ...
  6 = max angles/atom
  scanning dihedrals ...
  15 = max dihedrals/atom
  reading bonds ...
  72020 bonds
  reading angles ...
  143880 angles
  reading dihedrals ...
  215640 dihedrals
Finding 1-2 1-3 1-4 neighbors ...
  special bond factors lj:    0.0      0.0      1.0     
  special bond factors coul:  0.0      0.0      1.0     
     4 = max # of 1-2 neighbors
     9 = max # of 1-3 neighbors
    13 = max # of special neighbors
  special bonds CPU = 1.547 seconds
  read_data CPU = 4.025 seconds

dielectric      1.0
neighbor    	1.0 bin
neigh_modify	delay 0 every 1 check no        ## this is to make sure that the neighbor list is updated every timestep, and the atoms don't get lost as the system is being deformed ##

timestep	    1.0                             ## unit = fs, per "real" unit style
run_style       verlet                          ## defines algorithm used for simulation computation; verlet integration is a numerical method used to integrate Newton's equations of motion.

variable stress equal press*-1                         ## computes stress as the negative of press values
variable engStrain equal (lx-91.07191)/91.07191      ## computes engineering strain; lx_0 must be found and inputted manually (for now)

thermo		    20                                                               ## output log data (headers in thermo_style), recorded at every timestep in numList.txt
thermo_style    custom step vol temp press lx ly lz v_stress v_engStrain         ## data headers of output log file. More: https://docs.lammps.org/thermo_style.html

################# Deformation ##################

fix 1 all npt temp 100 100 100 y 1 1 100.0 z 1 1 100.0      ## stress normal to the x direction can vary; external pressure (y and z) = 1atm ##

fix 2 all deform 1 x scale 2.0 remap x                      ## sets a uniaxial (x-direction) deformation in motion, scaling a set amount (here, 4.0x) the initial length


################# Dumping ##################

reset_timestep 0

dump dump2 all custom 2000 sim.lammpstrj id mol type q xs ys zs ix iy iz

restart 4000 PMP.restart

run 		40000              ## this depends on the overall strain rate, where strain rate = deformScale / runTimeSteps (consider units!)
PPPM initialization ...
  using 12-bit tables for long-range coulomb (../kspace.cpp:328)
  G vector (1/distance) = 0.20855304
  grid = 24 24 24
  stencil order = 5
  estimated absolute RMS force accuracy = 0.019795394
  estimated relative force accuracy = 5.9613242e-05
  using double precision FFTW3
  3d grid and FFT values/proc = 1331 216
Neighbor list info ...
  update every 1 steps, delay 0 steps, check no
  max neighbors/atom: 2000, page size: 100000
  master list distance cutoff = 16
  ghost atom cutoff = 16
  binsize = 8, bins = 11 11 11
  1 neighbor lists, perpetual/occasional/extra = 1 0 0
  (1) pair lj/cut/coul/long, perpetual
      attributes: half, newton on
      pair build: half/bin/newton
      stencil: half/bin/3d/newton
      bin: standard
Per MPI rank memory allocation (min/avg/max) = 32.44 | 32.78 | 33.22 Mbytes
Step Volume Temp Press Lx Ly Lz v_stress v_engStrain 
       0     617953.6    99.928272    4326.2873    85.176271    85.176271    85.176271   -4326.2873 -0.064736086 
      20    621972.81    102.08961     1943.733    85.218859     85.40844    85.454491    -1943.733 -0.064268454 
      40    622735.79    101.79251    780.46028    85.261447    85.412304    85.512714   -780.46028 -0.063800822 
      60    620946.79    101.29531    330.56143    85.304035    85.288517    85.348176   -330.56143  -0.06333319 
      80    620046.55    101.45805    596.82458    85.346624    85.189786    85.280634   -596.82458 -0.062865558 
     100    618864.42    101.27909    636.30293    85.389212     85.07784    85.187536   -636.30293 -0.062397926 
     120    619873.95    101.42644    470.69685      85.4318    85.127859    85.233852   -470.69685 -0.061930294 
     140    620749.56    101.26295    -270.5646    85.474388    85.153963    85.285571     270.5646 -0.061462662 
     160    619480.93    101.15684   -218.38516    85.516976    85.044563    85.178317    218.38516  -0.06099503 
     180    620541.38    100.79924    58.651986    85.559564    85.079218    85.246918   -58.651986 -0.060527398 
     200    621247.85    100.64806   -8.5144849    85.602152    85.110639    85.270019    8.5144849 -0.060059766 
     220    621007.88    100.59749      207.866    85.644741    85.073277    85.232112     -207.866 -0.059592134 
     240    622200.31    100.67817   -634.30692    85.687329    85.143967    85.282464    634.30692 -0.059124502 
     260    621665.01    100.32865   -337.93321    85.729917    85.100472    85.210292    337.93321  -0.05865687 
     280    622137.07     100.0911   -335.89785    85.772505    85.119005    85.214098    335.89785 -0.058189238 
     300    622393.73     100.2251   -208.30731    85.815093    85.098327    85.227649    208.30731 -0.057721606 
     320    622171.53    100.21535   -376.49463    85.857681    85.048709    85.204641    376.49463 -0.057253974 
     340    622906.02    100.20823   -361.04133    85.900269    85.064045    85.247562    361.04133 -0.056786342 
     360    623250.69    100.00913   -658.89319    85.942857    85.050003    85.266541    658.89319  -0.05631871 
     380    622801.89    99.840417    -440.8559    85.985446     84.97389    85.239222     440.8559 -0.055851078 
     400    622947.41    99.779805   -484.08284    86.028034    84.969392    85.221441    484.08284 -0.055383446 
     420    623510.56    100.10708   -344.79952    86.070622    84.957379    85.268331    344.79952 -0.054915814 
     440    623793.36    99.910436    -288.4834     86.11321    84.937772    85.284499     288.4834 -0.054448183 
     460    623860.33    99.951124   -571.36541    86.155798    84.945959    85.243276    571.36541 -0.053980551 
     480    623938.56    99.657429   -402.39206    86.198386    84.921944    85.235942    402.39206 -0.053512919 
     500    624038.98    99.859887   -364.88096    86.240974     84.92013    85.209382    364.88096 -0.053045287 
     520    624358.74    99.789386   -326.61159    86.283563    84.935587    85.195456    326.61159 -0.052577655 
     540    624717.81    99.784649   -493.07515    86.326151    84.959098    85.178819    493.07515 -0.052110023 
     560    624737.78     99.58053    -293.3203    86.368739    84.953715    85.144934     293.3203 -0.051642391 
     580    624723.45    99.765587   -302.36812    86.411327    84.947088    85.107658    302.36812 -0.051174759 
     600    624894.51    99.984806   -376.28381    86.453915    84.957256    85.078841    376.28381 -0.050707127 
     620    624471.03    99.695087   -281.47652    86.496503    84.886951    85.049705    281.47652 -0.050239495 
     640    624285.87    100.39361   -173.13777    86.539091    84.866446    85.003178    173.13777 -0.049771863 
     660     624879.3    100.07549   -301.62532     86.58168    84.883184    85.025359    301.62532 -0.049304231 
     680    625158.05    100.10673   -155.02322    86.624268    84.880277    85.024379    155.02322 -0.048836599 
     700    625486.56    100.21927   -266.58009    86.666856    84.878219    85.029316    266.58009 -0.048368967 
     720    625615.57    100.07284   -209.30956    86.709444    84.905672    84.977597    209.30956 -0.047901335 
     740    625983.44    100.01739   -287.23422    86.752032    84.928997    84.962483    287.23422 -0.047433703 
     760    626449.06    100.32926   -392.00494     86.79462      84.9134    84.999569    392.00494 -0.046966071 
     780    626642.05    100.37483   -277.04105    86.837208    84.871726    85.025784    277.04105 -0.046498439 
     800    626370.53    100.03832   -272.96755    86.879796     84.83179    84.987272    272.96755 -0.046030807 
     820    626550.95    100.07712   -277.35323    86.922385    84.784944    85.017048    277.35323 -0.045563175 
     840    626982.86    100.44306    -374.1399    86.964973    84.787768    85.031159     374.1399 -0.045095543 
     860    627117.94    99.738013    -308.9388    87.007561    84.773167    85.022491     308.9388 -0.044627911 
     880    627226.17     100.2911   -365.40844    87.050149    84.730301    85.038561    365.40844 -0.044160279 
     900    626993.12    99.945585   -409.03015    87.092737     84.70618     84.98959    409.03015 -0.043692647 
     920    626699.47    100.29403   -292.17182    87.135325    84.650264    84.964352    292.17182 -0.043225016 
     940    627061.63    99.656951   -381.20594    87.177913    84.645091    84.977114    381.20594 -0.042757384 
     960    627464.57    99.753144   -380.48663    87.220502    84.691402    84.943726    380.48663 -0.042289752 
     980    627363.47    99.439764   -387.55729     87.26309    84.670851    84.909194    387.55729  -0.04182212 
    1000    627428.33    100.02374   -519.64348    87.305678    84.641036    84.906447    519.64348 -0.041354488 
    1020    627174.96    99.721873   -566.77286    87.348266     84.60586    84.866048    566.77286 -0.040886856 
    1040    626833.62    100.15049   -557.01862    87.390854    84.556564    84.827949    557.01862 -0.040419224 
    1060    627109.63    99.921666   -555.79687    87.433442    84.574671    84.805804    555.79687 -0.039951592 
    1080    627354.39    99.982298   -337.93431     87.47603    84.536593    84.835795    337.93431  -0.03948396 
    1100    627237.44    99.893104   -578.23822    87.518618    84.522143    84.793198    578.23822 -0.039016328 
    1120     627161.9    99.861524   -652.99966    87.561207    84.460963    84.803133    652.99966 -0.038548696 
    1140    627768.04    100.02265   -564.86852    87.603795    84.456458    84.848354    564.86852 -0.038081064 
    1160    628033.87    99.904899   -577.06144    87.646383    84.417787    84.881902    577.06144 -0.037613432 
    1180     628336.8    99.865414   -444.69633    87.688971    84.413881    84.885529    444.69633   -0.0371458 
    1200     628726.1    99.911179   -508.73698    87.731559    84.432829    84.877836    508.73698 -0.036678168 
    1220    628867.86      99.9071   -615.96263    87.774147    84.441572    84.846996    615.96263 -0.036210536 
    1240    628992.45    99.946804   -585.20776    87.816735    84.438509    84.825726    585.20776 -0.035742904 
    1260    629114.42    100.02538   -574.34749    87.859324    84.401466    84.838269    574.34749 -0.035275272 
    1280    628846.97    100.07853   -461.52542    87.901912    84.345095    84.817764    461.52542  -0.03480764 
    1300    629495.89    99.906413   -588.86545      87.9445    84.376906    84.832179    588.86545 -0.034340008 
    1320    629613.08    99.881602    -555.2114    87.987088    84.358696    84.825209     555.2114 -0.033872376 
    1340    629114.51    100.00346   -519.14915    88.029676    84.324466    84.751424    519.14915 -0.033404744 
    1360    629653.41    99.511073   -561.49377    88.072264    84.363603    84.743673    561.49377 -0.032937112 
    1380     629388.1    100.01493   -399.64055    88.114852    84.295739    84.735186    399.64055 -0.032469481 
    1400    629899.87    100.14466   -585.75788    88.157441    84.344755    84.713859    585.75788 -0.032001849 
    1420    630376.12    99.525239   -596.85623    88.200029    84.343335      84.7384    596.85623 -0.031534217 
    1440    630042.54    99.791049   -326.01522    88.242617    84.287612    84.708647    326.01522 -0.031066585 
    1460    630181.95    99.249874   -555.92319    88.285205    84.281386    84.692775    555.92319 -0.030598953 
    1480    630367.85    99.742993   -424.50768    88.327793    84.280482     84.67782    424.50768 -0.030131321 
    1500    630504.25    99.883229   -482.76261    88.370381     84.28479    84.650998    482.76261 -0.029663689 
    1520     631099.4    99.722407   -595.51644    88.412969    84.318062    84.656669    595.51644 -0.029196057 
    1540     630789.8    100.08311   -380.21677    88.455557    84.277807    84.614796    380.21677 -0.028728425 
    1560    631275.77    100.15679   -574.90281    88.498146    84.284642    84.632371    574.90281 -0.028260793 
    1580    631733.79     99.93258    -635.4362    88.540734    84.276532    84.661184     635.4362 -0.027793161 
    1600    631470.45    100.54087   -549.85042    88.583322    84.268499     84.59327    549.85042 -0.027325529 
    1620    631592.65     100.7153   -587.91913     88.62591    84.201389    84.636385    587.91913 -0.026857897 
    1640    631534.81    100.26545   -668.14821    88.668498    84.192349    84.597069    668.14821 -0.026390265 
    1660    631742.59    100.17994   -691.08924    88.711086    84.180849    84.595831    691.08924 -0.025922633 
    1680    632185.52    100.48242     -746.152    88.753674     84.19445    84.600852      746.152 -0.025455001 
    1700    632302.89    100.16846   -668.97478    88.796263    84.225418    84.544879    668.97478 -0.024987369 
    1720    632845.67    100.47239   -738.48297    88.838851    84.252603    84.549599    738.48297 -0.024519737 
    1740    633536.16    99.968684   -704.87831    88.881439    84.244755    84.609174    704.87831 -0.024052105 
    1760     633496.7    100.57355   -787.53696    88.924027    84.243997    84.564147    787.53696 -0.023584473 
    1780    633682.97    100.41251    -811.5506    88.966615    84.229514    84.563058     811.5506 -0.023116841 
    1800    633461.44    99.581094   -816.84034    89.009203    84.179514    84.543234    816.84034 -0.022649209 
    1820    633578.97    100.35042   -864.42599    89.051791    84.143062    84.555095    864.42599 -0.022181577 
    1840    633880.57     100.0593   -828.91258     89.09438    84.124448    84.573617    828.91258 -0.021713946 
    1860    633731.43    99.859672   -931.61314    89.136968     84.12205    84.515729    931.61314 -0.021246314 
    1880    633800.47    100.28957    -930.2387    89.179556    84.086707    84.520082     930.2387 -0.020778682 
    1900     633752.9    99.696071   -713.48891    89.222144    84.000694    84.559894    713.48891  -0.02031105 
    1920    634027.12    99.640505   -767.42574    89.264732    84.015064    84.541659    767.42574 -0.019843418 
    1940    634073.01     100.1286   -839.85467     89.30732    84.005844    84.516734    839.85467 -0.019375786 
    1960    634199.03    99.633124   -881.81809    89.349908    83.979325    84.519921    881.81809 -0.018908154 
    1980    634389.67    100.16149   -777.84311    89.392496    83.972943    84.511471    777.84311 -0.018440522 
    2000    634580.51    99.925276   -715.51078    89.435085    83.939817    84.529985    715.51078  -0.01797289 
    2020    634752.67     99.96864   -734.32167    89.477673    83.954612    84.497781    734.32167 -0.017505258 
    2040    635057.83    100.12737    -787.2948    89.520261    83.961039    84.491716     787.2948 -0.017037626 
    2060    635111.13    100.02976    -769.6837    89.562849     83.88475    84.535438     769.6837 -0.016569994 
    2080    635179.57    99.764513   -731.53862    89.605437    83.861511    84.527783    731.53862 -0.016102362 
    2100    635520.96     100.2325   -664.52865    89.648025    83.877083    84.517342    664.52865  -0.01563473 
    2120    635819.73    99.767908   -657.77108    89.690613     83.86367    84.530443    657.77108 -0.015167098 
    2140    636701.63    99.838572   -792.36407    89.733202    83.926742    84.543931    792.36407 -0.014699466 
    2160    636665.54    99.637871   -776.49442     89.77579    83.893589    84.532426    776.49442 -0.014231834 
    2180    636546.48    99.752429   -770.72494    89.818378    83.882582    84.487629    770.72494 -0.013764202 
    2200    636621.87    99.752202   -740.49607    89.860966      83.8848    84.455357    740.49607  -0.01329657 
    2220    636506.52    100.34116   -604.72595    89.903554    83.884683    84.400171    604.72595 -0.012828938 
    2240    636981.59    99.589034   -732.99381    89.946142    83.906155    84.401569    732.99381 -0.012361306 
    2260    637024.96     100.1089   -750.73589     89.98873    83.896085    84.377495    750.73589 -0.011893674 
    2280    637014.18     99.78401    -819.2693    90.031318    83.871649    84.360726     819.2693 -0.011426042 
    2300    637578.81    100.10786   -1045.8254    90.073907    83.892412     84.37469    1045.8254  -0.01095841 
    2320    637352.47    99.996158   -893.17671    90.116495    83.817303    84.380422    893.17671 -0.010490779 
    2340    637070.34    99.753423   -789.11222    90.159083    83.768828    84.352015    789.11222 -0.010023147 
    2360    637392.24    99.873801   -995.36089    90.201671    83.803036    84.320357    995.36089 -0.0095555146 
    2380    637372.96    100.06686   -946.53947    90.244259    83.773344    84.307886    946.53947 -0.0090878827 
    2400    637688.86    100.04132   -1003.3444    90.286847    83.789032    84.294098    1003.3444 -0.0086202507 
    2420    637605.91    99.995475   -972.17762    90.329435     83.76483    84.267736    972.17762 -0.0081526187 
    2440    637563.72    99.976398   -934.94522    90.372024    83.747801    84.239577    934.94522 -0.0076849868 
    2460    637991.16    99.654373   -951.28374    90.414612    83.772958    84.231044    951.28374 -0.0072173548 
    2480    637869.64    99.663742   -879.13506      90.4572    83.726451    84.222108    879.13506 -0.0067497229 
    2500    637827.36    99.471932   -724.36403    90.499788    83.714779    84.188631    724.36403 -0.0062820909 
    2520    638166.15    99.596783   -1054.4471    90.542376    83.731069    84.177347    1054.4471 -0.005814459 
    2540    638462.24     99.92039   -945.61301    90.584964     83.73685    84.170999    945.61301 -0.005346827 
    2560    638647.54    99.435548   -826.68869    90.627552    83.741641    84.151047    826.68869 -0.004879195 
    2580    638538.03    100.30297   -884.96408    90.670141    83.722556    84.116268    884.96408 -0.0044115631 
    2600     638560.2    100.21083   -818.25096    90.712729    83.679728    84.122729    818.25096 -0.0039439311 
    2620    639370.36    99.743681   -879.97523    90.755317    83.722952    84.146469    879.97523 -0.0034762992 
    2640    639698.99    100.03201   -924.47702    90.797905    83.759412      84.1136    924.47702 -0.0030086672 
    2660    639536.05     100.6025   -865.04296    90.840493    83.710447    84.101915    865.04296 -0.0025410353 
    2680    639606.47    99.799691   -846.56858    90.883081    83.699889    84.082366    846.56858 -0.0020734033 
    2700    639721.93    100.44819   -946.78176    90.925669    83.687371    84.070728    946.78176 -0.0016057713 
    2720    639691.64    100.34026    -864.1175    90.968257    83.695099    84.019631     864.1175 -0.0011381394 
    2740    639624.23    100.82926   -863.61927    91.010846    83.693679     83.97289    863.61927 -0.00067050743 
    2760    639579.53     100.3922   -725.39153    91.053434    83.664063    83.957457    725.39153 -0.00020287547 
    2780    639964.72    100.66829   -695.11292    91.096022    83.667649    83.965147    695.11292 0.00026475649 
    2800    640538.59    100.45763   -805.44659     91.13861    83.679931     83.98884    805.44659 0.00073238844 
    2820    640377.88    100.43889   -851.23176    91.181198    83.631288    83.977365    851.23176 0.0012000204 
    2840    640489.95    100.65872   -850.97353    91.223786    83.630448    83.953692    850.97353 0.0016676524 
    2860    641151.38    100.14856   -757.15906    91.266374     83.67162    83.959841    757.15906 0.0021352843 
    2880    641403.61    100.31719   -746.23963    91.308963    83.682242    83.943038    746.23963 0.0026029163 
    2900    641893.87    100.54398    -909.1962    91.351551    83.677894    83.972399     909.1962 0.0030705482 
    2920    642057.22    100.21518   -923.26796    91.394139    83.686682    83.945813    923.26796 0.0035381802 
    2940    642201.12    100.33435   -912.97366    91.436727     83.65156    83.960756    912.97366 0.0040058121 
    2960    642324.94    100.58926   -787.67082    91.479315    83.621101    83.968423    787.67082 0.0044734441 
    2980    642357.39    99.846694   -750.17957    91.521903    83.624538     83.93014    750.17957 0.0049410761 
    3000    642667.88    100.10492   -869.45146    91.564491    83.609974    83.946273    869.45146  0.005408708 
    3020    643397.54    100.03134   -1013.6099     91.60708     83.62373    83.988693    1013.6099   0.00587634 
    3040     643263.5     99.80278   -881.95779    91.649668    83.594495    83.961528    881.95779 0.0063439719 
    3060    643152.03    100.26183   -865.53872    91.692256    83.565628    83.936974    865.53872 0.0068116039 
    3080    642971.24    99.773877   -708.08023    91.734844    83.529513    83.910685    708.08023 0.0072792358 
    3100    643455.05    100.23935    -939.9929    91.777432    83.486208    83.978396     939.9929 0.0077468678 
    3120    643947.64    100.48255   -1128.0072     91.82002    83.478156    84.011807    1128.0072 0.0082144998 
    3140    643553.05    100.11127   -827.97358    91.862608    83.433317    83.966503    827.97358 0.0086821317 
    3160    643640.42    99.852847   -710.71721    91.905196    83.393008    83.979561    710.71721 0.0091497637 
    3180     643866.8    99.973665   -888.50093    91.947785    83.408036    83.955059    888.50093 0.0096173956 
    3200    644316.24    99.857991   -940.98315    91.990373    83.400432    83.982424    940.98315  0.010085028 
    3220    644334.63    99.847147   -998.08744    92.032961    83.341844    84.004969    998.08744   0.01055266 
    3240    644275.81    99.703704   -800.97051    92.075549    83.315616    83.984879    800.97051  0.011020292 
    3260    644719.59    99.567562   -819.74817    92.118137    83.309842    84.009695    819.74817  0.011487923 
    3280     644993.4    100.73039    -1043.313    92.160725    83.302511    84.013928     1043.313  0.011955555 
    3300    645066.86    100.17508   -849.83211    92.203313    83.286132    84.001204    849.83211  0.012423187 
    3320    645674.89    99.711071   -864.89592    92.245902    83.306406    84.021112    864.89592  0.012890819 
    3340    645585.85    99.692282   -761.35869     92.28849    83.268672    84.008808    761.35869  0.013358451 
    3360    645690.02      99.4475   -883.17387    92.331078     83.24213    84.010386    883.17387  0.013826083 
    3380    645528.44    99.615706   -898.95734    92.373666    83.209241    83.983823    898.95734  0.014293715 
    3400     645662.7    99.683871   -842.41212    92.416254    83.205135    83.966723    842.41212  0.014761347 
    3420    646047.09    99.287928   -895.01101    92.458842    83.231421     83.95149    895.01101  0.015228979 
    3440    646075.29    99.824488   -826.68417     92.50143    83.200413    83.947777    826.68417  0.015696611 
    3460    646371.25    99.164125   -924.65355    92.544018    83.179718    83.968469    924.65355  0.016164243 
    3480    646398.76     99.36778   -864.89835    92.586607    83.189553    83.923494    864.89835  0.016631875 
    3500     646194.3    99.748144     -728.212    92.629195    83.155264    83.892955      728.212  0.017099507 
    3520    646481.87    99.681532    -682.9023    92.671783    83.182911    83.863836     682.9023  0.017567139 
    3540    646547.13     99.69714   -766.38542    92.714371    83.138917    83.878136    766.38542  0.018034771 
    3560    646826.61    99.952624   -721.70009    92.756959    83.140843    83.873921    721.70009  0.018502403 
    3580    647496.41    99.610867   -777.56867    92.799547    83.174215     83.88857    777.56867  0.018970035 
    3600    647410.57     99.95931   -632.76177    92.842135    83.148068    83.865339    632.76177  0.019437667 
    3620    647530.25    99.890375   -668.68011    92.884724    83.122883    83.867784    668.68011  0.019905299 
    3640    647882.78    100.24349   -731.83097    92.927312    83.161623    83.835915    731.83097  0.020372931 
    3660    648304.47    99.645894   -695.96779      92.9699    83.145144    83.868671    695.96779  0.020840563 
    3680    648502.24    100.03245   -700.60298    93.012488    83.181716    83.818974    700.60298  0.021308195 
    3700     648517.1    100.36377   -759.99092    93.055076    83.185164    83.779061    759.99092  0.021775827 
    3720    648660.19     99.95013   -851.22857    93.097664    83.175085    83.769361    851.22857  0.022243458 
    3740    649323.51    100.19165   -891.35019    93.140252    83.186995    83.804682    891.35019   0.02271109 
    3760    649291.23    100.35218   -800.06615    93.182841    83.170039    83.779292    800.06615  0.023178722 
    3780    649121.45    100.20801   -768.74677    93.225429    83.134028    83.755386    768.74677  0.023646354 
    3800    649243.43    100.26022   -850.22653    93.268017    83.114424    83.752624    850.22653  0.024113986 
    3820    649466.75    100.16772   -927.07436    93.310605    83.097998    83.759746    927.07436  0.024581618 
    3840    649885.59    99.765989   -897.74525    93.353193    83.122363    83.750972    897.74525   0.02504925 
    3860    650067.27    100.42305   -786.74325    93.395781    83.103559    83.755129    786.74325  0.025516882 
    3880    650562.61    99.957206   -974.86033    93.438369    83.111747    83.772492    974.86033  0.025984514 
    3900    650781.92    99.872426   -889.82369    93.480957    83.092909    83.781544    889.82369  0.026452146 
    3920     650879.5    100.40161   -1033.2261    93.523546    83.073519      83.7755    1033.2261  0.026919778 
    3940    650874.26    99.859463   -848.66975    93.566134    83.034535    83.776006    848.66975   0.02738741 
    3960    650979.43    99.885164   -868.60528    93.608722    82.999805    83.786466    868.60528  0.027855042 
    3980    651278.01    100.38399   -810.14629     93.65131    83.000489    83.786087    810.14629  0.028322674 
    4000    651467.01    99.504777   -791.25146    93.693898    83.024837    83.747739    791.25146  0.028790306 
    4020     651532.3    99.961477   -907.82561    93.736486    83.038261    83.704545    907.82561  0.029257938 
    4040    651665.62    100.05195   -828.01128    93.779074    83.028911    83.693075    828.01128   0.02972557 
    4060    652158.48    99.444264   -838.14468    93.821663    83.080256    83.666615    838.14468  0.030193202 
    4080    652243.49       100.12   -821.28936    93.864251    83.092475    83.627255    821.28936  0.030660834 
    4100     652044.6    99.874552   -899.97546    93.906839    83.039336    83.617314    899.97546  0.031128466 
    4120    652248.53    99.732585   -838.48892    93.949427    83.030988    83.613956    838.48892  0.031596098 
    4140    652693.99     99.67796   -868.57392    93.992015    83.049401    83.614606    868.57392   0.03206373 
    4160     652904.8    99.947701   -695.52071    94.034603    83.028346    83.624933    695.52071  0.032531362 
    4180    652789.08    99.550794   -829.60438    94.077191    83.017574    83.583105    829.60438  0.032998993 
    4200    653113.92    100.41964   -645.21682     94.11978     83.02379      83.5806    645.21682  0.033466625 
    4220    653732.18    100.23438    -833.4666    94.162368    83.017362    83.628357     833.4666  0.033934257 
    4240     653938.8    99.761854   -667.95184    94.204956    83.012171    83.622199    667.95184  0.034401889 
    4260    653716.18    100.65042   -579.78953    94.247544    82.954629    83.613917    579.78953  0.034869521 
    4280       653658    100.17245   -748.19012    94.290132     82.93697    83.586506    748.19012  0.035337153 
    4300    654272.87    99.931063   -659.58796     94.33272    82.988801     83.57513    659.58796  0.035804785 
    4320     654258.5    100.08668   -770.16001    94.375308    82.986409    83.537989    770.16001  0.036272417 
    4340    653942.79    99.852134    -769.7907    94.417896    82.983985    83.462454     769.7907  0.036740049 
    4360    653876.26    100.10171   -733.74783    94.460485    82.947246    83.453283    733.74783  0.037207681 
    4380    654225.31    100.21625   -862.51941    94.503073     82.91951    83.488121    862.51941  0.037675313 
    4400    654522.76    100.09804   -814.47362    94.545661    82.921058    83.486896    814.47362  0.038142945 
    4420    654871.08    99.825921    -784.1084    94.588249    82.898053    83.516887     784.1084  0.038610577 
    4440    655277.64    100.30187   -849.80555    94.630837    82.871486    83.557904    849.80555  0.039078209 
    4460    655738.05    99.971046   -875.85446    94.673425    82.868074     83.58244    875.85446  0.039545841 
    4480    655691.07    99.906257   -861.35904    94.716013    82.877936    83.528932    861.35904  0.040013473 
    4500    655574.52    99.685079   -827.86392    94.758602    82.844423     83.51032    827.86392  0.040481105 
    4520    656012.79    99.458245   -784.71123     94.80119    82.848498      83.5245    784.71123  0.040948737 
    4540    656410.86    99.767893   -901.81537    94.843778    82.823663    83.562703    901.81537  0.041416369 
    4560    656594.36    99.939351   -770.31368    94.886366    82.794241    83.578236    770.31368  0.041884001 
    4580    656457.54    99.360095    -754.3645    94.928954    82.768731    83.549076     754.3645  0.042351633 
    4600    656862.62      99.9096   -785.44971    94.971542    82.773731    83.558094    785.44971  0.042819265 
    4620    657227.38    99.808695   -685.62887     95.01413    82.776106    83.564623    685.62887  0.043286897 
    4640    657538.97    100.04233   -769.95558    95.056718    82.789564    83.553199    769.95558  0.043754529 
    4660     657667.9    99.829811   -822.34668    95.099307    82.773917    83.547949    822.34668   0.04422216 
    4680    658122.27     100.1043   -835.81742    95.141895     82.78957    83.552446    835.81742  0.044689792 
    4700    658469.83    99.668405   -773.43751    95.184483    82.791586    83.557132    773.43751  0.045157424 
    4720    658574.45    99.900862   -775.41125    95.227071    82.753133    83.571848    775.41125  0.045625056 
    4740    658238.51    99.881352   -709.68074    95.269659    82.732072    83.513132    709.68074  0.046092688 
    4760    658029.99     100.4263     -711.268    95.312247    82.729857    83.451607      711.268   0.04656032 
    4780    658241.93    100.18712   -710.44304    95.354835    82.676212    83.495343    710.44304  0.047027952 
    4800    658550.11    100.53498   -621.45473    95.397424    82.681791    83.491507    621.45473  0.047495584 
    4820    658629.53    100.52327   -555.80281    95.440012    82.650641    83.495772    555.80281  0.047963216 
    4840    658514.24     100.2488   -488.04471      95.4826    82.598538    83.496559    488.04471  0.048430848 
    4860    658685.63    100.82978   -490.13619    95.525188    82.600326    83.479248    490.13619   0.04889848 
    4880    659220.65    100.70112   -598.16504    95.567776    82.604658    83.505443    598.16504  0.049366112 
    4900    659519.44    100.50177    -541.0962    95.610364    82.614244     83.49639     541.0962  0.049833744 
    4920    659629.75    101.02023   -530.16092    95.652952    82.637748    83.449431    530.16092  0.050301376 
    4940    659856.65    100.80187   -578.89935    95.695541    82.616278     83.46267    578.89935  0.050769008 
    4960     660142.3    100.23535   -430.67747    95.738129    82.633892    83.443867    430.67747   0.05123664 
    4980    660367.27    100.63575   -584.55334    95.780717    82.601641    83.467764    584.55334  0.051704272 
    5000    660302.52      100.637    -618.9626    95.823305    82.580463    83.443881     618.9626  0.052171904 
    5020    660445.81    100.62152   -576.70479    95.865893    82.583257    83.422089    576.70479  0.052639536 
    5040    660891.66    100.24936   -677.12963    95.908481    82.566599    83.458171    677.12963  0.053107168 
    5060    660897.15    100.36967   -572.69102    95.951069    82.590994    83.397181    572.69102    0.0535748 
    5080    661007.72    100.41488   -680.22721    95.993657    82.571607    83.393703    680.22721  0.054042432 
    5100    661260.29    100.10691   -711.17479    96.036246    82.574609     83.38554    711.17479  0.054510064 
    5120    661347.41    100.08111   -785.52209    96.078834     82.58569    83.348375    785.52209  0.054977695 
    5140    661486.04    100.29791   -744.73917    96.121422    82.555078    83.359807    744.73917  0.055445327 
    5160    661662.85    100.17226   -697.67595     96.16401    82.546786    83.353534    697.67595  0.055912959 
    5180    661573.74    99.817447   -643.59171    96.206598    82.546871    83.305329    643.59171  0.056380591 
    5200    661733.84     100.1886   -713.43964    96.249186    82.544254     83.29126    713.43964  0.056848223 
    5220    662242.93    100.19568   -929.06897    96.291774    82.584505    83.277863    929.06897  0.057315855 
    5240     662182.1    99.998458   -795.49401    96.334363    82.585293    83.232607    795.49401  0.057783487 
    5260    662497.11     100.1764   -604.27459    96.376951    82.598815    83.221778    604.27459  0.058251119 
    5280    662689.63    99.881954   -614.18797    96.419539    82.609336    83.198595    614.18797  0.058718751 
    5300    663076.14    100.01329   -856.58787    96.462127    82.624121    83.195477    856.58787  0.059186383 
    5320    663480.67    99.739958    -861.7948    96.504715    82.628499    83.205086     861.7948  0.059654015 
    5340    663166.88      100.192   -752.20875    96.547303    82.574604    83.183307    752.20875  0.060121647 
    5360    663709.07    99.986255   -633.13158    96.589891    82.589795    83.199303    633.13158  0.060589279 
    5380    663962.95    100.14142    -690.7691    96.632479    82.600798    83.183364     690.7691  0.061056911 
    5400    663827.96    100.01234   -803.39068    96.675068    82.545677    83.185325    803.39068  0.061524543 
    5420    664258.08    99.643345    -901.4375    96.717656    82.553757    83.194428     901.4375  0.061992175 
    5440     664263.9    99.941998   -715.57769    96.760244    82.549346    83.162983    715.57769  0.062459807 
    5460    664091.77    99.766831   -579.21501    96.802832    82.543661    83.110578    579.21501  0.062927439 
    5480    664600.94    100.06947    -647.9901     96.84542    82.562902    83.118349     647.9901  0.063395071 
    5500    664568.56    99.525881   -725.82425    96.888008    82.510608     83.13042    725.82425  0.063862703 
    5520    664470.83    100.17534   -618.92998    96.930596    82.499026    83.093339    618.92998  0.064330335 
    5540    664561.47    99.729091   -607.23522    96.973185    82.476582    83.090782    607.23522  0.064797967 
    5560    664226.98    99.931984   -585.25341    97.015773    82.419351    83.070146    585.25341  0.065265599 
    5580    664556.64    99.881817    -649.7875    97.058361    82.425567    83.068641     649.7875   0.06573323 
    5600     664698.2    99.978033   -638.32316    97.100949    82.418987    83.056524    638.32316  0.066200862 
    5620    665073.77    100.50064   -589.03526    97.143537    82.432496    83.053408    589.03526  0.066668494 
    5640    665518.38    99.873205   -756.75628    97.186125     82.40673    83.098485    756.75628  0.067136126 
    5660    665397.93    99.813744   -579.76265    97.228713    82.397262    83.056595    579.76265  0.067603758 
    5680    665788.02    99.906693    -692.1541    97.271302    82.388555    83.077681     692.1541   0.06807139 
    5700    666176.03    100.11852   -716.28407     97.31389    82.388723    83.089548    716.28407  0.068539022 
    5720    666405.91    99.825104   -796.02758    97.356478    82.424804    83.045492    796.02758  0.069006654 
    5740    666331.65    99.585898   -749.32227    97.399066     82.38792    83.037088    749.32227  0.069474286 
    5760    666327.32    100.13129   -935.73295    97.441654    82.358649    83.029755    935.73295  0.069941918 
    5780    666126.39    99.830527   -831.04483    97.484242    82.331921    82.995391    831.04483   0.07040955 
    5800    666559.08    99.936644   -821.51338     97.52683    82.321884    83.023156    821.51338  0.070877182 
    5820    666941.53    99.885309   -871.93437    97.569418    82.350185    83.005995    871.93437  0.071344814 
    5840    666789.76    100.10885   -938.92989    97.612007    82.332432    82.968786    938.92989  0.071812446 
    5860    666865.85    99.840102   -892.68189    97.654595    82.311451    82.963208    892.68189  0.072280078 
    5880     667014.5    99.905824   -854.03944    97.697183    82.332144    82.924681    854.03944   0.07274771 
    5900    667098.77    99.846051   -936.68398    97.739771    82.291169    82.940298    936.68398  0.073215342 
    5920    667178.06    99.989691   -987.62316    97.782359    82.287103    82.918126    987.62316  0.073682974 
    5940    667628.69    99.679155    -980.0941    97.824947    82.292799    82.932266     980.0941  0.074150606 
    5960    667270.57    99.893892   -765.23659    97.867535    82.259826    82.884922    765.23659  0.074618238 
    5980    667919.85    99.789241   -914.57978    97.910124    82.282076    82.907059    914.57978   0.07508587 
    6000    668025.34    99.709267   -898.03048    97.952712     82.25381    82.912584    898.03048  0.075553502 
    6020    668201.02    100.22022   -844.70912      97.9953    82.227262    82.925111    844.70912  0.076021134 
    6040    668621.84    99.538527   -701.32907    98.037888    82.247647    82.920732    701.32907  0.076488766 
    6060    668220.51    99.803655   -587.41129    98.080476    82.179428     82.90374    587.41129  0.076956397 
    6080     668977.7    99.953641   -784.95528    98.123064    82.265708    82.874648    784.95528  0.077424029 
    6100    669322.02    99.873984   -683.55763    98.165652    82.245999    82.901192    683.55763  0.077891661 
    6120    669319.28    99.839393   -760.35931    98.208241    82.247798    82.863091    760.35931  0.078359293 
    6140    668973.04    100.01054   -497.10734    98.250829     82.19828    82.834197    497.10734  0.078826925 
    6160    669074.32    100.25631    -517.2092    98.293417    82.186764    82.822445     517.2092  0.079294557 
    6180    669204.93    99.701596   -593.03039    98.336005    82.180083    82.809468    593.03039  0.079762189 
    6200    669231.86    99.665461   -670.53139    98.378593    82.162884    82.794278    670.53139  0.080229821 
    6220    669216.91    99.868985   -542.54301    98.421181    82.140557    82.779097    542.54301  0.080697453 
    6240    669524.96    99.968023   -480.72491    98.463769    82.167464    82.754274    480.72491  0.081165085 
    6260    669562.24     99.75032   -467.92658    98.506357     82.14109    82.749662    467.92658  0.081632717 
    6280    669953.14    99.879499   -707.77659    98.548946    82.201565    82.701305    707.77659  0.082100349 
    6300    670791.06    99.908415   -644.10454    98.591534    82.201232    82.769307    644.10454  0.082567981 
    6320    670953.19    100.08386    -576.1074    98.634122    82.182442    82.772486     576.1074  0.083035613 
    6340       671238    100.22384   -590.11718     98.67671    82.188687    82.765593    590.11718  0.083503245 
    6360    671160.61    99.749861   -560.05448    98.719298    82.151512    82.757781    560.05448  0.083970877 
    6380    670975.23    100.06459   -645.79859    98.761886    82.095841    82.755326    645.79859  0.084438509 
    6400    671285.14    100.02606   -748.76124    98.804474    82.094201    82.759515    748.76124  0.084906141 
    6420    671232.67    99.931728   -680.50529    98.847063    82.063531    82.748308    680.50529  0.085373773 
    6440    671004.99      100.203   -483.47057    98.889651    82.037538    82.710812    483.47057  0.085841405 
    6460    671267.91    100.08339   -725.14768    98.932239    82.002867    82.742571    725.14768  0.086309037 
    6480    671375.69    99.858009   -665.09321    98.974827    81.997847    82.725312    665.09321  0.086776669 
    6500    671580.07    100.40596   -838.90329    99.017415    81.972609     82.74037    838.90329  0.087244301 
    6520    671491.94    100.14628    -723.5846    99.060003    81.927939    82.739032     723.5846  0.087711932 
    6540    671507.67    100.25446   -657.33961    99.102591    81.938484     82.69477    657.33961  0.088179564 
    6560    671812.68    100.04392   -571.19629    99.145179    81.952756    82.682391    571.19629  0.088647196 
    6580    672019.46    99.694592   -552.93508    99.187768    81.935757    82.689481    552.93508  0.089114828 
    6600     672255.1    99.910705   -654.37142    99.230356    81.940745     82.67794    654.37142   0.08958246 
    6620    672440.12     100.1836   -815.48442    99.272944    81.921148    82.684991    815.48442  0.090050092 
    6640    672598.15    99.768078   -729.58438    99.315532     81.94981    82.640044    729.58438  0.090517724 
    6660    672375.99    99.566003   -525.47832     99.35812    81.901639    82.625907    525.47832  0.090985356 
    6680    672366.36    100.10239   -628.41488    99.400708    81.914773    82.576081    628.41488  0.091452988 
    6700    672781.97    100.02255   -804.44754    99.443296    81.912827    82.593699    804.44754   0.09192062 
    6720    672580.28    99.367394   -698.09156    99.485885    81.853973    82.592935    698.09156  0.092388252 
    6740    672833.15    99.506363   -584.42191    99.528473    81.884746    82.557595    584.42191  0.092855884 
    6760     673256.9    99.919433   -662.51804    99.571061    81.849589    82.609724    662.51804  0.093323516 
    6780     673250.1    99.812532   -607.82869    99.613649    81.821099    82.602324    607.82869  0.093791148 
    6800    673816.41    100.11832   -676.96996    99.656237    81.836798    82.620624    676.96996   0.09425878 
    6820    673751.38    100.02406   -662.41157    99.698825    81.782811    82.631872    662.41157  0.094726412 
    6840    674151.79     100.0538   -589.72591    99.741413    81.790551    82.637855    589.72591  0.095194044 
    6860    674215.96     100.4358   -549.59584    99.784002    81.709037    82.692861    549.59584  0.095661676 
    6880    674028.42    99.939002   -623.92524     99.82659    81.677337    82.666663    623.92524  0.096129308 
    6900     674453.4    100.06177   -758.83351    99.869178    81.710861    82.649586    758.83351   0.09659694 
    6920    674697.59    99.975409   -770.22835    99.911766    81.697539    82.657745    770.22835  0.097064572 
    6940    674730.13    99.907936   -609.61568    99.954354    81.687878    82.636283    609.61568  0.097532204 
    6960    674898.44    100.39251    -529.2335    99.996942     81.70842     82.60092     529.2335  0.097999836 
    6980    674901.76    100.25434   -613.46892    100.03953    81.697634    82.577064    613.46892  0.098467468 
    7000    675318.02    100.41011   -820.54704    100.08212    81.737287    82.552767    820.54704  0.098935099 
    7020    675731.95    100.38179   -815.50411    100.12471    81.760526    82.544762    815.50411  0.099402731 
    7040    675914.99    100.70219   -603.52583    100.16729     81.75979    82.532759    603.52583  0.099870363 
    7060    676218.56    100.17423   -430.80104    100.20988    81.761451    82.533059    430.80104     0.100338 
    7080    676497.08    100.67701   -601.03766    100.25247    81.775784    82.517512    601.03766   0.10080563 
    7100     676590.8    100.24534   -677.49531    100.29506    81.787103    82.482483    677.49531   0.10127326 
    7120    676650.47    100.32417   -854.17489    100.33765    81.766565    82.475455    854.17489   0.10174089 
    7140    676716.25    100.34017   -667.45672    100.38024     81.74741    82.467798    667.45672   0.10220852 
    7160    677044.75     100.0619   -657.00343    100.42282    81.735901    82.484451    657.00343   0.10267616 
    7180    676948.72    100.35866   -673.13952    100.46541     81.71927    82.454569    673.13952   0.10314379 
    7200     676967.7    100.00502    -758.1647      100.508    81.699664     82.44172     758.1647   0.10361142 
    7220    677512.47    100.13642   -963.93829    100.55059    81.666636     82.50647    963.93829   0.10407905 
    7240    677517.91    100.46325   -764.51665    100.59318    81.648378    82.490645    764.51665   0.10454668 
    7260    677712.86    99.928945   -718.20054    100.63576     81.59435    82.534076    718.20054   0.10501431 
    7280    677941.05    100.14992   -659.36486    100.67835    81.577262    82.544227    659.36486   0.10548195 
    7300    678327.08    100.19165   -626.64177    100.72094    81.555019    82.578824    626.64177   0.10594958 
    7320    678467.77    99.807281   -729.31677    100.76353    81.530247    82.586127    729.31677   0.10641721 
    7340    678987.83    100.34537   -724.06368    100.80612    81.537097    82.607572    724.06368   0.10688484 
    7360    679093.29    100.00436   -697.37742     100.8487    81.523153    82.599638    697.37742   0.10735247 
    7380    679307.35     99.74582   -570.55972    100.89129    81.500678    82.613573    570.55972   0.10782011 
    7400    679384.75    100.05964   -617.16202    100.93388    81.495282    82.593591    617.16202   0.10828774 
    7420    679331.06    100.10165   -618.61477    100.97647    81.421962    82.626571    618.61477   0.10875537 
    7440     679826.4    99.497453   -710.16433    101.01906    81.474679     82.59848    710.16433     0.109223 
    7460    680590.91    100.38459   -704.63781    101.06165    81.493265    82.637669    704.63781   0.10969063 
    7480    680295.54    100.19233    -598.7766    101.10423    81.439896     82.62112     598.7766   0.11015827 
    7500    679996.37    100.07922   -552.06837    101.14682    81.420121    82.570062    552.06837    0.1106259 
    7520    679977.62    99.748939   -500.54045    101.18941    81.392418    82.561125    500.54045   0.11109353 
    7540    680090.82    99.700129   -689.10912      101.232    81.384519    82.548142    689.10912   0.11156116 
    7560    680453.55    99.984603   -591.62845    101.27459    81.396388      82.5454    591.62845   0.11202879 
    7580    680123.19    100.02456   -591.79732    101.31717    81.330096    82.537865    591.79732   0.11249643 
    7600    680082.11    99.506607    -510.7836    101.35976    81.363031    82.464808     510.7836   0.11296406 
    7620    680636.17    100.09224   -486.50223    101.40235     81.35709    82.503353    486.50223   0.11343169 
    7640    680819.66    99.806916   -712.75971    101.44494    81.363822    82.484123    712.75971   0.11389932 
    7660    680894.26    99.647316   -799.93418    101.48753    81.355329    82.467153    799.93418   0.11436695 
    7680    680994.97    99.468263    -737.7039    101.53012    81.314705    82.485942     737.7039   0.11483459 
    7700     681206.4    99.825425   -604.62206     101.5727     81.34594    82.445285    604.62206   0.11530222 
    7720    681789.39    99.760424   -637.96238    101.61529    81.389087    82.437535    637.96238   0.11576985 
    7740    681760.34     99.48624   -752.74537    101.65788    81.334639    82.454648    752.74537   0.11623748 
    7760     681950.9    99.674232    -706.6212    101.70047      81.3464    82.431238     706.6212   0.11670511 
    7780    682608.42    99.605407   -520.66918    101.74306     81.35797    82.464449    520.66918   0.11717275 
    7800    682592.23     99.60314   -561.33771    101.78564    81.336131    82.450122    561.33771   0.11764038 
    7820    682688.23    99.656458    -734.1995    101.82823    81.342583    82.420692     734.1995   0.11810801 
    7840    683001.26    99.628061   -771.62442    101.87082    81.340891    82.425725    771.62442   0.11857564 
    7860     682954.4    100.10032   -615.11154    101.91341    81.305897    82.421087    615.11154   0.11904327 
    7880     683275.4    99.943453    -659.7458      101.956    81.305047    82.426243     659.7458   0.11951091 
    7900    683204.86    99.902921   -648.87649    101.99858    81.285802    82.402825    648.87649   0.11997854 
    7920    683519.66    100.43977   -672.40116    102.04117    81.279051    82.413232    672.40116   0.12044617 
    7940    684272.83    99.921023   -722.09846    102.08376    81.352978    82.394681    722.09846    0.1209138 
    7960    684403.66    100.33391   -687.66302    102.12635     81.34772    82.381394    687.66302   0.12138143 
    7980    684215.26    100.43334   -633.77215    102.16894    81.304967    82.367674    633.77215   0.12184907 
    8000    684599.69    99.797615   -723.08605    102.21153    81.301164    82.383467    723.08605    0.1223167 
    8020    684885.16     100.0815     -759.047    102.25411    81.322357    82.362025      759.047   0.12278433 
    8040     684918.5    100.00599   -739.44626     102.2967    81.287168    82.367383    739.44626   0.12325196 
    8060    684956.18     100.0498   -632.01306    102.33929    81.302704    82.321903    632.01306   0.12371959 
    8080    685110.12    99.763366   -518.91447    102.38188    81.280711    82.328424    518.91447   0.12418723 
    8100    685209.63    100.03247    -660.7464    102.42447    81.257473    82.329682     660.7464   0.12465486 
    8120    685781.51     100.2713   -812.66779    102.46705    81.276824    82.344539    812.66779   0.12512249 
    8140    685840.59    99.917941   -722.35575    102.50964     81.28225    82.311923    722.35575   0.12559012 
    8160    685553.92     100.1739   -597.22758    102.55223    81.231531      82.2947    597.22758   0.12605775 
    8180    686176.27    100.06123   -701.12548    102.59482    81.219525    82.347388    701.12548   0.12652538 
    8200    686357.98    99.589789   -576.15479    102.63741    81.227073    82.327364    576.15479   0.12699302 
    8220    686347.91    99.334797   -548.44866    102.67999    81.223154    82.295982    548.44866   0.12746065 
    8240    686577.29     100.1701   -535.59703    102.72258    81.214366    82.298259    535.59703   0.12792828 
    8260    686822.24    99.700966   -566.87999    102.76517    81.252044    82.255342    566.87999   0.12839591 
    8280    687411.28    99.905745   -691.97437    102.80776    81.245983    82.297921    691.97437   0.12886354 
    8300    687434.61    99.756916    -529.0823    102.85035    81.251835     82.26071     529.0823   0.12933118 
    8320    687363.01    99.762098   -583.30396    102.89294    81.255264    82.214628    583.30396   0.12979881 
    8340    687759.26    99.799067   -624.18664    102.93552    81.212081    82.271711    624.18664   0.13026644 
    8360    687717.16    100.12861   -539.08046    102.97811    81.208298    82.236483    539.08046   0.13073407 
    8380    688280.56    99.981815   -693.43924     103.0207    81.192579    82.285758    693.43924    0.1312017 
    8400    688386.72    100.15833   -595.87261    103.06329    81.178174    82.279039    595.87261   0.13166934 
    8420    688433.49    100.10861   -548.42541    103.10588    81.161518     82.26752    548.42541   0.13213697 
    8440     688782.2    99.921327    -607.6391    103.14846    81.152154    82.284701     607.6391    0.1326046 
    8460    688729.06    99.983411   -625.90575    103.19105    81.132692    82.264125    625.90575   0.13307223 
    8480    688788.98     99.75815   -658.30988    103.23364    81.114349    82.255938    658.30988   0.13353986 
    8500     689311.8    100.11306   -727.71198    103.27623    81.160031    82.238113    727.71198    0.1340075 
    8520     689375.6    100.28596   -624.32639    103.31882    81.164837    82.206955    624.32639   0.13447513 
    8540    689485.08    100.29199   -495.71626     103.3614    81.143138    82.208111    495.71626   0.13494276 
    8560    689921.79    100.72254   -565.50857    103.40399    81.191172    82.177655    565.50857   0.13541039 
    8580    690252.08    100.43101   -742.95833    103.44658    81.177718    82.196768    742.95833   0.13587802 
    8600    690901.75    100.41624   -756.98111    103.48917    81.199643    82.218068    756.98111   0.13634566 
    8620    690848.18     100.6108   -697.08916    103.53176    81.208938     82.16847    697.08916   0.13681329 
    8640     690791.1    100.30353   -581.82367    103.57435    81.188092    82.148984    581.82367   0.13728092 
    8660    691009.73      100.652   -547.81654    103.61693      81.1662    82.163365    547.81654   0.13774855 
    8680    691228.71    100.59705   -765.50658    103.65952    81.167007    82.154817    765.50658   0.13821618 
    8700    690997.39    100.01385   -703.17356    103.70211    81.131145    82.129884    703.17356   0.13868382 
    8720    691226.84    99.979363   -666.53392     103.7447    81.167611    82.086534    666.53392   0.13915145 
    8740    690933.28    99.960035   -517.49255    103.78729    81.109225    82.077044    517.49255   0.13961908 
    8760    691341.11    100.40979   -697.35024    103.82987    81.098934    82.102221    697.35024   0.14008671 
    8780    691243.66    100.36096   -625.75474    103.87246    81.090317    82.065711    625.75474   0.14055434 
    8800    691597.18    100.22852   -683.31912    103.91505    81.072147    82.092425    683.31912   0.14102198 
    8820    692226.53    99.760281   -629.44943    103.95764    81.095551    82.109764    629.44943   0.14148961 
    8840    691956.83    100.45365   -632.54101    104.00023    81.051146    82.089112    632.54101   0.14195724 
    8860    692137.95    99.674393   -620.95825    104.04282    81.044875    82.083339    620.95825   0.14242487 
    8880    692678.69    100.23559   -552.60654     104.0854    81.062024    82.096484    552.60654    0.1428925 
    8900    693078.64    100.18917   -547.46409    104.12799    81.064638    82.107641    547.46409   0.14336014 
    8920    693177.11    99.735658    -560.2783    104.17058    81.086505    82.063598     560.2783   0.14382777 
    8940    693395.19    100.21084   -668.53404    104.21317    81.082923    82.059493    668.53404    0.1442954 
    8960    693672.69    99.951094   -471.86033    104.25576    81.095151    82.046426    471.86033   0.14476303 
    8980     693710.9    99.945808   -554.66669    104.29834    81.094831    82.017766    554.66669   0.14523066 
    9000    693456.47    100.35825   -441.73528    104.34093    81.036823    82.012885    441.73528    0.1456983 
    9020     693449.4    99.875661   -486.07927    104.38352    81.041478    81.973878    486.07927   0.14616593 
    9040    693581.48    100.16046   -490.81694    104.42611    81.030936    81.966717    490.81694   0.14663356 
    9060    693740.93    100.28105   -614.26628     104.4687    80.995092    81.988406    614.26628   0.14710119 
    9080    693660.08    99.914298   -446.54735    104.51128    80.965447    81.975448    446.54735   0.14756882 
    9100    693552.44    100.08671   -446.06816    104.55387    80.971015    81.923707    446.06816   0.14803645 
    9120    694080.02    99.719541    -501.3804    104.59646    80.971479    81.952174     501.3804   0.14850409 
    9140    694199.01    99.882593   -378.84328    104.63905    80.961186     81.94328    378.84328   0.14897172 
    9160    694284.02    100.08727   -449.10152    104.68164    80.938284    81.943153    449.10152   0.14943935 
    9180    694777.64    99.607922   -481.05945    104.72423     80.94382    81.962459    481.05945   0.14990698 
    9200    695035.45    99.496231   -484.76355    104.76681    80.924373    81.979238    484.76355   0.15037461 
    9220    695617.19    99.648266   -437.22501     104.8094    80.935571    82.003168    437.22501   0.15084225 
    9240    695881.42    99.635312   -599.35439    104.85199     80.97188    81.964226    599.35439   0.15130988 
    9260    695823.85    99.286597   -560.82668    104.89458    80.951326    81.944971    560.82668   0.15177751 
    9280    696214.91    99.700476   -706.87323    104.93717    80.958232    81.950757    706.87323   0.15224514 
    9300    695546.13    99.550232   -521.03321    104.97975    80.901677    81.896033    521.03321   0.15271277 
    9320    695627.56    99.938019   -564.33203    105.02234    80.862533     81.91204    564.33203   0.15318041 
    9340    695473.51    100.26604   -621.17407    105.06493    80.798964    81.925109    621.17407   0.15364804 
    9360    695509.38     99.79215   -901.48897    105.10752    80.771163    81.924325    901.48897   0.15411567 
    9380    695780.08    100.44072   -749.37397    105.15011     80.77503    81.919095    749.37397    0.1545833 
    9400    695857.07    100.10731   -707.11056    105.19269    80.726633    81.944088    707.11056   0.15505093 
    9420    696058.95    100.22807   -680.77111    105.23528    80.727928    81.933375    680.77111   0.15551857 
    9440    696739.02    100.15336   -713.31242    105.27787    80.758028    81.949694    713.31242    0.1559862 
    9460    696745.02    99.796183    -968.0764    105.32046    80.732154    81.943515     968.0764   0.15645383 
    9480    696871.25    99.947809   -893.85521    105.36305    80.732003    81.925387    893.85521   0.15692146 
    9500    696890.48    99.783301   -669.91321    105.40564    80.720954    81.905754    669.91321   0.15738909 
    9520    696817.69    100.00824   -626.37733    105.44822    80.689574    81.895959    626.37733   0.15785673 
    9540    697461.17    100.15931   -631.50621    105.49081    80.692717    81.935302    631.50621   0.15832436 
    9560    697612.84     100.0158   -583.07724     105.5334     80.67725    81.935753    583.07724   0.15879199 
    9580    697603.12     100.2052   -534.18953    105.57599    80.658826    81.920268    534.18953   0.15925962 
    9600     698198.7    100.32945   -454.19382    105.61858    80.659295     81.95667    454.19382   0.15972725 
    9620    698841.12    99.836259   -590.74264    105.66116    80.678593    81.979401    590.74264   0.16019489 
    9640    698683.21    100.40118   -392.45153    105.70375     80.67398     81.93254    392.45153   0.16066252 
    9660     699275.4    99.582662   -354.11931    105.74634    80.701577    81.940929    354.11931   0.16113015 
    9680    699464.16    99.359604   -333.23449    105.78893    80.675658    81.956374    333.23449   0.16159778 
    9700    699804.59     100.3171   -291.93699    105.83152    80.653208     81.98608    291.93699   0.16206541 
    9720    699784.45    99.954629   -205.70182     105.8741    80.671742    81.931915    205.70182   0.16253305 
    9740    699698.77     100.0426   -201.95959    105.91669    80.648556    81.912486    201.95959   0.16300068 
    9760    700229.48    100.65202   -266.36671    105.95928     80.68747    81.902147    266.36671   0.16346831 
    9780    699713.99    99.929928    -284.8541    106.00187    80.624469    81.872898     284.8541   0.16393594 
    9800    699544.36    100.06566   -347.07659    106.04446     80.60646    81.838458    347.07659   0.16440357 
    9820    699985.81    99.691427   -371.21493    106.08705    80.641254    81.821909    371.21493   0.16487121 
    9840     699845.2    99.885436   -375.74776    106.12963     80.63699     81.77697    375.74776   0.16533884 
    9860     700327.3    99.870585   -234.86755    106.17222    80.645261    81.792089    234.86755   0.16580647 
    9880     700945.3    99.439975   -448.46865    106.21481    80.683736    81.792419    448.46865    0.1662741 
    9900    700895.08    99.711727   -554.62233     106.2574    80.637578    81.800576    554.62233   0.16674173 
    9920    701314.63    99.946886   -547.18507    106.29999    80.634826    81.819541    547.18507   0.16720937 
    9940    701324.21    99.808549   -432.70586    106.34257     80.60299    81.820195    432.70586     0.167677 
    9960    701748.25    99.527809   -426.88573    106.38516    80.580464    81.859768    426.88573   0.16814463 
    9980    702486.77    100.26414   -525.67833    106.42775    80.614521    81.878521    525.67833   0.16861226 
   10000    702125.19     100.2729   -673.07691    106.47034    80.590773    81.827748    673.07691   0.16907989 
   10020    702112.41    99.737028   -626.59835    106.51293    80.552301    81.832606    626.59835   0.16954752 
   10040    702406.76    100.18305    -629.7333    106.55552    80.562639     81.82369     629.7333   0.17001516 
   10060    702080.72    99.884413   -597.97865     106.5981    80.535398    81.780688    597.97865   0.17048279 
   10080    702598.54    99.948217   -678.95468    106.64069    80.551795    81.791669    678.95468   0.17095042 
   10100    702833.88    100.21061   -681.11645    106.68328    80.535871    81.802574    681.11645   0.17141805 
   10120    702977.52    99.968266   -802.49345    106.72587    80.514649    81.808201    802.49345   0.17188568 
   10140    703667.34    100.17844   -677.61207    106.76846    80.535737     81.83438    677.61207   0.17235332 
   10160    703874.79    100.12304   -730.33542    106.81104    80.521168    81.840672    730.33542   0.17282095 
   10180    704167.65     99.97407   -614.37549    106.85363    80.512007    81.851403    614.37549   0.17328858 
   10200    704494.81    100.44497    -426.6619    106.89622    80.500041    81.868974     426.6619   0.17375621 
   10220     704614.7    100.04119   -486.85339    106.93881    80.509429    81.840752    486.85339   0.17422384 
   10240       704981    99.776189   -510.66431     106.9814    80.485523    81.875013    510.66431   0.17469148 
   10260    704935.25    100.21714   -384.03823    107.02398    80.485535    81.837109    384.03823   0.17515911 
   10280    705320.47    99.331993   -418.18218    107.06657    80.498103     81.83648    418.18218   0.17562674 
   10300    705623.76    99.893043   -302.61853    107.10916     80.52491    81.811873    302.61853   0.17609437 
   10320    705885.45    99.828461   -476.50038    107.15175    80.544909    81.789371    476.50038     0.176562 
   10340     706235.4    99.297487   -390.72901    107.19434    80.532853    81.809653    390.72901   0.17702964 
   10360    706472.92     99.81285   -390.24566    107.23693    80.522206    81.815484    390.24566   0.17749727 
   10380    706569.68    99.966089   -451.95809    107.27951    80.508538    81.808091    451.95809    0.1779649 
   10400     706863.2    99.641352    -480.0475     107.3221    80.496372    81.821964     480.0475   0.17843253 
   10420    706743.45    100.09862   -364.22498    107.36469    80.478102    81.794217    364.22498   0.17890016 
   10440     707036.9    100.08625    -387.1044    107.40728    80.480745    81.793047     387.1044    0.1793678 
   10460    707056.71    100.06795   -429.05225    107.44987    80.453616    81.790488    429.05225   0.17983543 
   10480    707287.58     100.4122   -453.22249    107.49245    80.487725     81.75012    453.22249   0.18030306 
   10500    707775.01    100.27166   -397.35594    107.53504    80.517107     81.74422    397.35594   0.18077069 
   10520    708122.09    100.24284   -389.69302    107.57763    80.513629    81.755461    389.69302   0.18123832 
   10540    708250.08    100.19893   -561.67918    107.62022     80.50761    81.743989    561.67918   0.18170596 
   10560    708792.57    100.20299    -645.5966    107.66281    80.532936    81.748525     645.5966   0.18217359 
   10580    708897.23     100.6034   -667.47829    107.70539    80.505672    81.755945    667.47829   0.18264122 
   10600    709149.02    100.01648   -683.09332    107.74798    80.468721    81.790198    683.09332   0.18310885 
   10620    709635.55    99.989598   -679.62317    107.79057    80.476535    81.806031    679.62317   0.18357648 
   10640    709585.78    100.57134   -775.70507    107.83316    80.447618    81.797378    775.70507   0.18404412 
   10660    709513.38    99.855079   -692.18751    107.87575    80.412969    81.791971    692.18751   0.18451175 
   10680    709789.86    100.32279   -610.08625    107.91834    80.387563    81.817403    610.08625   0.18497938 
   10700    709771.01    99.977481   -641.45921    107.96092    80.372498    81.798285    641.45921   0.18544701 
   10720    709936.25    99.943478   -735.50468    108.00351    80.385008    81.772338    735.50468   0.18591464 
   10740    710167.64    99.731953    -778.2551     108.0461    80.367356    81.784707     778.2551   0.18638228 
   10760    710036.69    99.860121   -821.44645    108.08869    80.353911    81.751085    821.44645   0.18684991 
   10780    710697.13    99.857038    -688.7006    108.13128    80.370553     81.77796     688.7006   0.18731754 
   10800    710744.69    99.893363   -590.07393    108.17386    80.381775    81.739821    590.07393   0.18778517 
   10820    710904.43    99.889792   -619.91963    108.21645    80.390536    81.717111    619.91963    0.1882528 
   10840    711301.03    99.728319   -669.75792    108.25904     80.35317     81.76854    669.75792   0.18872044 
   10860    711258.02    99.983341    -696.7862    108.30163    80.330867    81.754137     696.7862   0.18918807 
   10880    711356.18    100.01426   -573.08138    108.34422    80.326311    81.737915    573.08138    0.1896557 
   10900    711411.86    100.05339   -622.01295     108.3868    80.310443    81.728338    622.01295   0.19012333 
   10920    711547.08    99.847065   -521.94603    108.42939    80.351297     81.67022    521.94603   0.19059096 
   10940    712047.49    100.29424   -471.36164    108.47198    80.355485    81.691309    471.36164    0.1910586 
   10960    711863.31    99.729745   -342.90109    108.51457    80.305978    81.688456    342.90109   0.19152623 
   10980    712446.32    100.47278   -396.03337    108.55716    80.331646    81.697171    396.03337   0.19199386 
   11000    712812.71     99.66502   -334.68968    108.59975    80.307199    81.732004    334.68968   0.19246149 
   11020    712595.74    100.19648   -288.95884    108.64233    80.288806    81.693808    288.95884   0.19292912 
   11040    713154.34    99.998684   -319.46445    108.68492    80.329801    81.684102    319.46445   0.19339675 
   11060    713161.18    99.965009   -382.15229    108.72751    80.313937    81.669018    382.15229   0.19386439 
   11080    713526.28    99.911025   -395.79922     108.7701    80.336065    81.656338    395.79922   0.19433202 
   11100    713958.68    99.985053   -358.94764    108.81269    80.321169     81.68899    358.94764   0.19479965 
   11120    713411.99    99.547494   -382.62137    108.85527    80.288593     81.62761    382.62137   0.19526728 
   11140    713991.01    99.874883   -301.21824    108.89786    80.302928    81.647334    301.21824   0.19573491 
   11160    714609.23    99.386515   -476.13344    108.94045    80.312567    81.676279    476.13344   0.19620255 
   11180    714641.84     99.54065   -482.73915    108.98304    80.316323     81.64427    482.73915   0.19667018 
   11200    715278.76    99.418867   -481.15468    109.02563    80.323565    81.677749    481.15468   0.19713781 
   11220    715409.58    99.836522   -447.55287    109.06822    80.303916     81.68077    447.55287   0.19760544 
   11240    715166.55    99.813507   -424.05671     109.1108    80.273652    81.651923    424.05671   0.19807307 
   11260    715273.29    100.01732   -554.25508    109.15339    80.246483    81.659885    554.25508   0.19854071 
   11280    715139.64    100.07043   -678.47804    109.19598     80.23085    81.628687    678.47804   0.19900834 
   11300    715452.41     99.41214   -700.67307    109.23857    80.225472    81.638022    700.67307   0.19947597 
   11320    715313.22    100.31977   -612.28455    109.28116    80.239114    81.576458    612.28455    0.1999436 
   11340    715295.91    100.02378   -700.89331    109.32374     80.21875    81.563406    700.89331   0.20041123 
   11360    715829.81    99.803618   -666.61136    109.36633    80.218496    81.592759    666.61136   0.20087887 
   11380    715895.43    100.34008   -760.43833    109.40892    80.210445    81.576662    760.43833    0.2013465 
   11400    716045.09     100.3277   -693.95583    109.45151    80.186294    81.586533    693.95583   0.20181413 
   11420    716440.21    100.79567   -740.31243     109.4941    80.178295    81.607943    740.31243   0.20228176 
   11440     716300.8    100.12825   -490.97726    109.53668    80.148428    81.590733    490.97726   0.20274939 
   11460    717113.85    100.28935    -618.2239    109.57927    80.158926    81.640905     618.2239   0.20321703 
   11480    717319.78    100.40273   -675.65431    109.62186     80.17268    81.618618    675.65431   0.20368466 
   11500    716916.62    100.60582   -552.46291    109.66445    80.120418    81.594255    552.46291   0.20415229 
   11520    717442.08    100.01799   -520.36881    109.70704    80.128665     81.61396    520.36881   0.20461992 
   11540    717611.93    100.34015   -411.11559    109.74963    80.160646    81.569049    411.11559   0.20508755 
   11560    718024.02    100.40529   -612.34936    109.79221    80.194639    81.549649    612.34936   0.20555519 
   11580    718244.41    99.902081   -618.01226     109.8348     80.23936    81.497601    618.01226   0.20602282 
   11600    717998.74    100.07876   -475.74803    109.87739    80.195815    81.482369    475.74803   0.20649045 
   11620    718543.13     99.99869   -494.90512    109.91998    80.212858    81.495235    494.90512   0.20695808 
   11640    718952.65    99.726058   -499.73632    109.96257    80.243458    81.479018    499.73632   0.20742571 
   11660    719316.85    99.848489   -460.22663    110.00515    80.244862    81.487307    460.22663   0.20789335 
   11680    719617.36    100.10975   -541.11099    110.04774    80.263708    81.470667    541.11099   0.20836098 
   11700    719631.74     99.53186   -563.49922    110.09033     80.25517    81.449443    563.49922   0.20882861 
   11720    719740.17    100.03372   -507.31884    110.13292    80.242398    81.443175    507.31884   0.20929624 
   11740    719566.25     100.1072   -444.16238    110.17551    80.240609    81.393836    444.16238   0.20976387 
   11760     719555.6    99.903697   -501.43902    110.21809    80.203918    81.398402    501.43902   0.21023151 
   11780    719512.74    99.815232   -425.01646    110.26068    80.200254    81.365831    425.01646   0.21069914 
   11800     719523.2    99.796871   -459.23698    110.30327    80.189797    81.346205    459.23698   0.21116677 
   11820    719567.52    100.22008   -588.23699    110.34586    80.170593    81.339297    588.23699    0.2116344 
   11840    719798.24    99.729899    -532.4371    110.38845    80.189507    81.314802     532.4371   0.21210203 
   11860    719804.31    99.883504   -570.97021    110.43104    80.159539    81.314518    570.97021   0.21256967 
   11880    720120.97     100.1294    -453.1789    110.47362    80.141168     81.33757     453.1789    0.2130373 
   11900    720482.86    100.37797   -565.54656    110.51621     80.14021    81.348057    565.54656   0.21350493 
   11920    720385.83    100.10023   -597.10298     110.5588    80.115973    81.330367    597.10298   0.21397256 
   11940    721104.23    100.35661   -632.06807    110.60139    80.150157    81.345416    632.06807   0.21444019 
   11960    721319.21    99.893967     -542.499    110.64398    80.143668    81.344933      542.499   0.21490782 
   11980    721559.85    100.39402   -623.66892    110.68656    80.165961    81.318143    623.66892   0.21537546 
   12000    721815.94    100.32177   -651.06352    110.72915    80.135594     81.34653    651.06352   0.21584309 
   12020    722412.76    99.629273   -740.27373    110.77174    80.126759    81.391462    740.27373   0.21631072 
   12040    722559.73    100.35433   -562.67747    110.81433    80.128235    81.375236    562.67747   0.21677835 
   12060    722835.37    100.16995   -619.14237    110.85692    80.125027    81.378262    619.14237   0.21724598 
   12080    723010.89    99.836152   -515.60604     110.8995    80.097558    81.394668    515.60604   0.21771362 
   12100    723474.58    99.833575   -690.99133    110.94209    80.074911     81.43863    690.99133   0.21818125 
   12120    723712.72    99.602097   -759.09873    110.98468    80.061589    81.447726    759.09873   0.21864888 
   12140    723389.27    99.549014   -681.56431    111.02727    80.074987    81.366481    681.56431   0.21911651 
   12160    723654.51    99.860787    -590.5708    111.06986    80.066551    81.373677     590.5708   0.21958414 
   12180     724465.7    99.858014   -619.98104    111.11245    80.092341    81.407447    619.98104   0.22005178 
   12200    724843.54    99.602156   -609.53714    111.15503    80.096903     81.41406    609.53714   0.22051941 
   12220    724797.56    99.866807   -651.63054    111.19762    80.049248    81.426162    651.63054   0.22098704 
   12240    724815.27    99.601537   -653.59298    111.24021    80.071646    81.374209    653.59298   0.22145467 
   12260     724980.3    99.848424   -583.29679     111.2828    80.068366     81.36492    583.29679    0.2219223 
   12280    725070.04    99.657591   -485.31137    111.32539    80.050586    81.361928    485.31137   0.22238994 
   12300    725135.11    100.29637    -360.4197    111.36797    80.050198    81.338508     360.4197   0.22285757 
   12320    725478.51     99.98291    -459.5768    111.41056    80.026087    81.370428     459.5768    0.2233252 
   12340    725873.95    99.940994   -554.31985    111.45315    80.047727    81.361671    554.31985   0.22379283 
   12360    726237.94    100.42786   -504.48308    111.49574    80.015564    81.404083    504.48308   0.22426046 
   12380    725995.42    100.35434    -412.0968    111.53833    79.959093    81.403278     412.0968    0.2247281 
   12400     726365.7    100.45516   -473.47125    111.58092    79.950835     81.42212    473.47125   0.22519573 
   12420    726413.04     100.1803   -402.54232     111.6235    79.900912    81.447216    402.54232   0.22566336 
   12440    726681.74    100.63712   -457.16556    111.66609    79.900693    81.446493    457.16556   0.22613099 
   12460    727130.29    100.54318   -445.21217    111.70868    79.892374    81.474179    445.21217   0.22659862 
   12480    727230.27    100.58253   -272.02508    111.75127    79.869466    81.477691    272.02508   0.22706626 
   12500    727717.55    100.71204   -476.61599    111.79386    79.914666    81.455127    476.61599   0.22753389 
   12520    728576.29    100.62461   -467.73204    111.83644    79.941424    81.492905    467.73204   0.22800152 
   12540    729086.61     100.4547   -567.80803    111.87903     79.96847    81.491373    567.80803   0.22846915 
   12560    729226.44    100.75631   -438.11792    111.92162    79.986154    81.457974    438.11792   0.22893678 
   12580    729613.71    100.64013   -342.82983    111.96421    80.003803    81.452261    342.82983   0.22940442 
   12600    729889.15    99.930049   -517.83519     112.0068    80.017232    81.438357    517.83519   0.22987205 
   12620    729961.25    100.10873   -520.75664    112.04938    79.993784    81.439311    520.75664   0.23033968 
   12640    729754.89    100.22925   -414.83494    112.09197    79.984125    81.395183    414.83494   0.23080731 
   12660    730211.37    100.30968   -495.46419    112.13456    80.014816    81.383936    495.46419   0.23127494 
   12680    730425.33    99.906333    -465.6019    112.17715    79.988258    81.403896     465.6019   0.23174258 
   12700    730383.91    99.846382   -570.50176    112.21974    79.988093    81.368555    570.50176   0.23221021 
   12720    730108.17    100.41121   -543.88808    112.26233    79.926475    81.369662    543.88808   0.23267784 
   12740    730029.26    100.35302   -563.66433    112.30491    79.897713    81.359292    563.66433   0.23314547 
   12760    730668.69      99.8726   -580.00407     112.3475    79.911767    81.385371    580.00407    0.2336131 
   12780    730788.97     100.1161   -662.01565    112.39009    79.864502    81.416079    662.01565   0.23408074 
   12800    731352.24    99.680642   -583.18957    112.43268    79.911481    81.400085    583.18957   0.23454837 
   12820    731667.16    99.547195   -516.59114    112.47527    79.912424    81.403341    516.59114     0.235016 
   12840     731904.7    99.574407   -631.33234    112.51785    79.922234    81.388956    631.33234   0.23548363 
   12860    732061.36    99.980345   -605.94229    112.56044     79.96213    81.334976    605.94229   0.23595126 
   12880    732117.16    99.788818   -609.18713    112.60303    79.938409    81.334539    609.18713   0.23641889 
   12900    732414.49    100.02111   -612.67524    112.64562    79.986738    81.287663    612.67524   0.23688653 
   12920     732762.5    99.850843   -537.24101    112.68821    79.972603    81.309921    537.24101   0.23735416 
   12940    733341.05    99.844221   -671.43893    112.73079    79.923813    81.393034    671.43893   0.23782179 
   12960    733564.61    100.19034   -618.38559    112.77338    79.980966    81.328942    618.38559   0.23828942 
   12980    734187.64    99.758737   -515.94389    112.81597    79.959564    81.389067    515.94389   0.23875705 
   13000    734549.26     100.0852   -539.83073    112.85856    80.000083    81.357199    539.83073   0.23922469 
   13020    734442.64    100.42172    -381.9198    112.90115    79.999615     81.31518     381.9198   0.23969232 
   13040    734755.54    99.822138   -571.95629    112.94374    79.987292    81.331677    571.95629   0.24015995 
[...]
   36740    1079693.8    100.01115   -148.52067    163.41068    80.966581    81.604548    148.52067   0.79430382 
   36760    1080049.6    100.55099   -257.10548    163.45326    80.963783    81.612996    257.10548   0.79477145 
   36780    1080118.3    100.70763   -223.48377    163.49585    80.956067    81.604702    223.48377   0.79523908 
   36800    1081164.2     100.2641   -303.26279    163.53844    80.962782    81.655678    303.26279   0.79570672 
   36820    1081004.1    100.36378   -294.02009    163.58103    80.949594     81.63563    294.02009   0.79617435 
   36840    1081172.2    100.50453   -215.96906    163.62362    80.939882    81.636862    215.96906   0.79664198 
   36860    1080835.5    100.18577    -132.9001     163.6662    80.926766    81.603429     132.9001   0.79710961 
   36880    1080868.3    100.68628   -123.02598    163.70879    80.909615    81.601967    123.02598   0.79757724 
   36900    1081458.4     99.97716   -176.64074    163.75138    80.904448    81.630497    176.64074   0.79804488 
   36920    1081859.5    100.17114   -12.204656    163.79397    80.923139    81.620684    12.204656   0.79851251 
   36940    1081876.7    99.951294   -3.4747704    163.83656    80.874338    81.650002    3.4747704   0.79898014 
   36960    1082645.7    99.711882    98.817348    163.87915    80.928045    81.632594   -98.817348   0.79944777 
   36980    1082614.4    99.721051   -11.915803    163.92173    80.945198    81.591737    11.915803    0.7999154 
   37000    1082149.1     99.97243    85.382694    163.96432    80.891388    81.589726   -85.382694   0.80038304 
   37020      1082840    99.933622    38.856377    164.00691     80.93132    81.580339   -38.856377   0.80085067 
   37040    1083033.9    100.19482    106.25596     164.0495    80.894724    81.610668   -106.25596    0.8013183 
   37060    1083497.5    100.35713    56.537668    164.09209    80.885436    81.633786   -56.537668   0.80178593 
   37080      1083173    100.22583    197.04894    164.13467    80.883751    81.589865   -197.04894   0.80225356 
   37100    1083508.5    100.08644    42.620296    164.17726    80.875181    81.602608   -42.620296    0.8027212 
   37120    1083836.1    100.15814    19.221442    164.21985    80.898272    81.582822   -19.221442   0.80318883 
   37140    1084061.7       100.28    26.816662    164.26244    80.903355    81.573518   -26.816662   0.80365646 
   37160    1084282.3    99.624311   -32.625081    164.30503    80.899847     81.57251    32.625081   0.80412409 
   37180    1084982.9    99.796129   -9.8516586    164.34761    80.925857    81.577832    9.8516586   0.80459172 
   37200    1085781.9    100.62121   -156.37581     164.3902    80.904371     81.63844    156.37581   0.80505935 
   37220    1086203.7    99.966049   -123.90878    164.43279    80.915297    81.637971    123.90878   0.80552699 
   37240    1086849.3     100.2168   -162.34821    164.47538    80.890143    81.690738    162.34821   0.80599462 
   37260    1087121.6    99.932135    -139.2202    164.51797    80.854657    81.725907     139.2202   0.80646225 
   37280    1087556.6    100.14886   -234.86015    164.56056    80.895735    81.695946    234.86015   0.80692988 
   37300    1087850.7    100.21349   -246.56924    164.60314    80.893295    81.699355    246.56924   0.80739751 
   37320    1087833.5    99.944757     -336.095    164.64573    80.872433    81.698005      336.095   0.80786515 
   37340    1087298.1    99.833586   -246.76167    164.68832    80.818766    81.690885    246.76167   0.80833278 
   37360      1087925    99.695858    -215.2631    164.73091    80.826871    81.708662     215.2631   0.80880041 
   37380    1088487.8     99.74207   -285.58052     164.7735    80.829138    81.727512    285.58052   0.80926804 
   37400    1089281.1    99.526373   -386.43153    164.81608    80.860031    81.734698    386.43153   0.80973567 
   37420      1089549     99.62766   -338.80142    164.85867    80.888223    81.705196    338.80142   0.81020331 
   37440    1089944.7    99.593603   -202.67802    164.90126    80.915095    81.686622    202.67802   0.81067094 
   37460    1090662.1    99.659775   -198.54851    164.94385    80.942805    81.691305    198.54851   0.81113857 
   37480    1091172.2    99.491028   -178.83412    164.98644     80.95871    81.692369    178.83412    0.8116062 
   37500    1091194.2    99.414021   -207.68006    165.02903      80.8864    81.745941    207.68006   0.81207383 
   37520    1091470.8    99.952131    -142.1036    165.07161    80.874824    81.757266     142.1036   0.81254147 
   37540    1091745.2    99.714817   -140.85462     165.1142    80.916124    81.714999    140.85462    0.8130091 
   37560    1091902.8     99.95686   -145.99338    165.15679    80.890613    81.731492    145.99338   0.81347673 
   37580      1092042    100.36937   -144.94322    165.19938    80.891419    81.720021    144.94322   0.81394436 
   37600      1091458    99.986217   -88.043328    165.24197    80.820315    81.727108    88.043328   0.81441199 
   37620    1091662.2    100.32498   -96.783238    165.28455    80.787672    81.754355    96.783238   0.81487963 
   37640      1091710    100.01374   -83.838162    165.32714    80.775149    81.749548    83.838162   0.81534726 
   37660    1091380.5    100.14332   -100.42562    165.36973    80.748681     81.73061    100.42562   0.81581489 
   37680    1091874.1    100.19003    5.3859378    165.41232    80.749545    81.745648   -5.3859378   0.81628252 
   37700    1092742.8    100.39034   -40.515004    165.45491    80.777821    81.760993    40.515004   0.81675015 
   37720      1093059     100.3464    5.0456765    165.49749    80.791548    81.749719   -5.0456765   0.81721779 
   37740    1093830.2    100.14246   -14.755353    165.54008    80.804653    81.773087    14.755353   0.81768542 
   37760    1093990.9     100.2376   -12.895771    165.58267    80.806358    81.762334    12.895771   0.81815305 
   37780    1094947.5    100.46318   -51.751174    165.62526    80.842523    81.776191    51.751174   0.81862068 
   37800    1095741.4    100.06055   -10.334243    165.66785    80.819612    81.837637    10.334243   0.81908831 
   37820    1095062.2    99.949736    -6.974398    165.71044    80.750631    81.835742     6.974398   0.81955595 
   37840    1095455.8    100.32869   -16.796572    165.75302    80.738703    81.856206    16.796572   0.82002358 
   37860    1095351.2    99.551162   -57.457306    165.79561    80.705546    81.860986    57.457306   0.82049121 
   37880    1095664.5      100.578   -159.35395     165.8382    80.714218    81.854581    159.35395   0.82095884 
   37900    1096722.7    100.11493   -152.56776    165.88079    80.757112    81.869089    152.56776   0.82142647 
   37920    1096456.6    99.498027    -77.46093    165.92338    80.738535    81.847044     77.46093   0.82189411 
   37940    1096948.4    100.50728   -61.999736    165.96596    80.771244    81.829596    61.999736   0.82236174 
   37960      1097878    100.25553    -169.2144    166.00855    80.814339    81.834266     169.2144   0.82282937 
   37980    1098394.1    100.15806   -171.63988    166.05114    80.847712    81.817949    171.63988     0.823297 
   38000    1099009.9    100.24399   -123.21255    166.09373    80.869607    81.820671    123.21255   0.82376463 
   38020    1099458.5    100.15558   -162.22415    166.13632    80.887706    81.814773    162.22415   0.82423227 
   38040    1099886.7    99.650134   -195.62579     166.1789    80.909525    81.803597    195.62579    0.8246999 
   38060    1099741.5    100.30968   -281.02447    166.22149    80.909487    81.771883    281.02447   0.82516753 
   38080    1099465.2    99.099353   -195.77649    166.26408    80.875528    81.764716    195.77649   0.82563516 
   38100    1099623.9     99.99691   -243.57026    166.30667    80.888257     81.74271    243.57026   0.82610279 
   38120      1099294    99.884472    -206.9159    166.34926     80.83866    81.747385     206.9159   0.82657042 
   38140    1099407.3     100.0224   -206.78951    166.39185    80.857139    81.716211    206.78951   0.82703806 
   38160    1099361.8     100.2991   -263.46239    166.43443    80.869188    81.679749    263.46239   0.82750569 
   38180    1099352.9    99.800743   -246.16014    166.47702    80.867359    81.660036    246.16014   0.82797332 
   38200    1099657.7    99.951548   -126.06478    166.51961    80.877866    81.651177    126.06478   0.82844095 
   38220    1099867.7    100.12377   -99.144376     166.5622    80.899834    81.623718    99.144376   0.82890858 
   38240    1100464.3    100.21599   -128.48404    166.60479    80.920252    81.626512    128.48404   0.82937622 
   38260    1102135.9      100.181    -181.3015    166.64737     80.95714    81.692372     181.3015   0.82984385 
   38280    1102242.9    100.05879   -132.26885    166.68996    80.966006     81.67049    132.26885   0.83031148 
   38300    1102423.2    100.22202    3.6788819    166.73255    80.981478    81.647379   -3.6788819   0.83077911 
   38320    1103481.2    100.22106   -57.718185    166.77514    80.974988    81.711417    57.718185   0.83124674 
   38340    1103573.3    99.834975   -61.392459    166.81773    80.978611    81.693717    61.392459   0.83171438 
   38360    1103853.5    100.00437   -57.241526    166.86031    80.965098     81.70724    57.241526   0.83218201 
   38380    1103962.2    99.803073   -63.852449     166.9029    80.957876    81.701723    63.852449   0.83264964 
   38400    1104320.5    99.664806   -58.215673    166.94549    81.000582    81.664312    58.215673   0.83311727 
   38420      1104326    100.60753    32.332856    166.98808    80.992001    81.652538   -32.332856    0.8335849 
   38440    1104420.4    99.835569   -22.278519    167.03067     80.99143    81.639279    22.278519   0.83405254 
   38460    1105338.8    100.10097   -98.341722    167.07326    81.015842    81.661723    98.341722   0.83452017 
   38480    1105514.8     100.4756   -35.731389    167.11584    80.996438    81.673472    35.731389    0.8349878 
   38500    1105784.7    99.885376   -120.64755    167.15843    81.004281    81.664693    120.64755   0.83545543 
   38520      1105735    100.37706   -65.082152    167.20102    80.993587    81.650998    65.082152   0.83592306 
   38540    1105225.4    100.01451   -50.084813    167.24361    80.950856    81.635654    50.084813    0.8363907 
   38560    1106477.3    99.600623   -101.14106     167.2862    80.976443    81.681497    101.14106   0.83685833 
   38580    1106574.3    100.06537   -105.48916    167.32878    80.930332    81.714404    105.48916   0.83732596 
   38600    1106219.2    99.890424   -170.76381    167.37137    80.892734    81.705352    170.76381   0.83779359 
   38620    1107031.6     99.95925   -182.89354    167.41396    80.873371    81.764124    182.89354   0.83826122 
   38640    1106729.5    99.666051   -153.34973    167.45655    80.851383    81.743247    153.34973   0.83872886 
   38660    1107208.5    99.608869   -240.16568    167.49914    80.883157    81.725715    240.16568   0.83919649 
   38680    1107407.1    99.392876   -309.37054    167.54173    80.848373    81.754757    309.37054   0.83966412 
   38700      1107069    99.765004   -217.49537    167.58431    80.841743    81.715729    217.49537   0.84013175 
   38720    1107840.9    99.491425   -283.20593     167.6269    80.843812    81.749835    283.20593   0.84059938 
   38740    1107848.1    99.603634     -282.935    167.66949    80.837697    81.735783      282.935   0.84106702 
   38760      1107995    99.566458   -322.34116    167.71208    80.813779    81.750055    322.34116   0.84153465 
   38780    1108482.2    99.584038   -289.67513    167.75467    80.839692    81.739029    289.67513   0.84200228 
   38800    1108656.1    99.772502   -324.04221    167.79725    80.845277    81.725452    324.04221   0.84246991 
   38820    1108347.9     99.92804   -278.79955    167.83984    80.824668    81.702833    278.79955   0.84293754 
   38840    1108633.7    99.848421   -333.39983    167.88243    80.830489    81.697288    333.39983   0.84340518 
   38860    1108600.4    99.796054   -302.51152    167.92502    80.807332    81.697517    302.51152   0.84387281 
   38880    1109571.6    99.942708   -252.25564    167.96761    80.836956    81.718397    252.25564   0.84434044 
   38900    1110009.9    100.41441   -233.07002    168.01019    80.890915    81.675437    233.07002   0.84480807 
   38920    1110498.6    100.11497   -197.35997    168.05278    80.897721    81.683817    197.35997    0.8452757 
   38940    1111037.5    99.949445   -170.52003    168.09537    80.918779    81.681489    170.52003   0.84574334 
   38960    1110814.8    100.28401    -127.5336    168.13796    80.873679     81.68996     127.5336   0.84621097 
   38980    1111091.1    100.24818   -144.05129    168.18055    80.835911    81.727753    144.05129    0.8466786 
   39000    1111459.5     100.6625   -130.28111    168.22314    80.821986    81.748239    130.28111   0.84714623 
   39020    1112118.7     100.0689   -116.59645    168.26572    80.832541    81.765341    116.59645   0.84761386 
   39040    1112391.1    100.36245   -62.628341    168.30831     80.81386    81.783577    62.628341   0.84808149 
   39060    1112574.2    100.57748   -36.002873     168.3509    80.832139    81.757854    36.002873   0.84854913 
   39080    1112791.8    100.16028   -120.83035    168.39349    80.797117    81.788597    120.83035   0.84901676 
   39100    1112997.2    99.734432   -94.278198    168.43608    80.817833    81.762045    94.278198   0.84948439 
   39120    1113017.8    100.25867   -12.353003    168.47866    80.829569    81.731023    12.353003   0.84995202 
   39140    1113488.7    100.29147    -76.60644    168.52125     80.83448    81.739969     76.60644   0.85041965 
   39160    1113420.4    99.822745   -73.970311    168.56384    80.828608    81.720241    73.970311   0.85088729 
   39180    1113605.7    100.15317   -84.538146    168.60643    80.858914    81.682573    84.538146   0.85135492 
   39200    1113702.4    99.905743   -84.629557    168.64902    80.871015    81.656816    84.629557   0.85182255 
   39220      1114335    99.925781    -4.764795     168.6916    80.879279    81.674224     4.764795   0.85229018 
   39240    1115057.4    100.34211   -53.567501    168.73419    80.882923    81.702864    53.567501   0.85275781 
   39260    1115781.5    100.32213   -92.065836    168.77678    80.915234    81.702655    92.065836   0.85322545 
   39280    1116355.3    100.27901   -182.51733    168.81937    80.914969    81.724314    182.51733   0.85369308 
   39300    1116066.2    100.17726   -133.62773    168.86196    80.933658    81.663686    133.62773   0.85416071 
   39320    1116594.6    100.09463   -72.204428    168.90455    80.975466    81.639577    72.204428   0.85462834 
   39340    1117313.6    100.10693   -156.98444    168.94713    80.986202    81.660722    156.98444   0.85509597 
   39360    1117477.7    99.772688   -225.83467    168.98972    81.033713    81.604263    225.83467   0.85556361 
   39380      1117754     99.88328    -234.6012    169.03231    80.998816    81.639027     234.6012   0.85603124 
   39400    1118149.4    100.20403   -194.42703     169.0749    80.993514    81.652682    194.42703   0.85649887 
   39420    1118320.5    99.777641   -184.62121    169.11749    80.990628    81.647521    184.62121    0.8569665 
   39440    1118888.6    99.886046   -231.26859    169.16007    80.983658    81.675463    231.26859   0.85743413 
   39460    1119431.9    99.878162   -273.99078    169.20266     81.00562    81.672405    273.99078   0.85790177 
   39480    1119741.1    99.983791   -203.10074    169.24525    80.996371    81.683734    203.10074    0.8583694 
   39500    1119844.5    100.19697   -234.80627    169.28784    80.963932    81.703444    234.80627   0.85883703 
   39520    1119463.6    99.311217   -213.76886    169.33043    80.954209    81.664921    213.76886   0.85930466 
   39540    1119659.6    99.804052   -191.63555    169.37301     80.92882    81.684295    191.63555   0.85977229 
   39560      1119708    99.725763   -209.51542     169.4156    80.948985    81.646953    209.51542   0.86023993 
   39580    1119508.2    99.481465   -188.45125    169.45819    80.911486     81.64969    188.45125   0.86070756 
   39600    1119914.9    99.752328   -213.43028    169.50078    80.888677    81.681858    213.43028   0.86117519 
   39620    1119733.2    98.913076    -134.7971    169.54337    80.887798    81.648972     134.7971   0.86164282 
   39640    1119585.3    99.787698   -94.944237    169.58596    80.861435    81.644301    94.944237   0.86211045 
   39660    1119806.9    99.459524   -129.93684    169.62854    80.852225    81.649258    129.93684   0.86257809 
   39680    1119780.5    99.561369    -66.55808    169.67113    80.829648    81.649638     66.55808   0.86304572 
   39700    1119954.5    99.396299   -68.257969    169.71372    80.813425    81.658219    68.257969   0.86351335 
   39720    1120763.5    99.652375   -58.104702    169.75631    80.823736     81.68628    58.104702   0.86398098 
   39740    1121397.4    99.838652   -20.276356     169.7989    80.869467    81.665779    20.276356   0.86444861 
   39760    1121772.2     99.84037    18.254936    169.84148    80.887606    81.654272   -18.254936   0.86491625 
   39780    1122076.9    99.797655    4.0505206    169.88407    80.884896    81.658714   -4.0505206   0.86538388 
   39800    1123096.8    99.777796    -31.10545    169.92666    80.919224    81.677789     31.10545   0.86585151 
   39820    1123790.4    99.911535    9.3732669    169.96925    80.951426     81.67525   -9.3732669   0.86631914 
   39840    1123855.5    99.729184    40.670348    170.01184    80.932515    81.678598   -40.670348   0.86678677 
   39860    1125077.2    99.878947    36.016628    170.05443    80.981878    81.697082   -36.016628   0.86725441 
   39880    1125591.1    99.804093   -16.642044    170.09701    81.025772     81.66967    16.642044   0.86772204 
   39900    1125890.7    99.982207    79.993723     170.1396    81.010179    81.686675   -79.993723   0.86818967 
   39920    1126855.6    99.960878     38.24092    170.18219    80.993921    81.752628    -38.24092    0.8686573 
   39940    1127120.7    99.893988    51.021548    170.22478    80.971919    81.773617   -51.021548   0.86912493 
   39960    1127070.1     100.0491    36.424665    170.26737    80.959104    81.762431   -36.424665   0.86959256 
   39980    1127062.8    99.836879    9.1977705    170.30995    80.980338    81.720028   -9.1977705    0.8700602 
   40000    1126786.8    99.980673   -52.104067    170.35254    80.957614    81.702514    52.104067   0.87052783 
Loop time of 3364.42 on 64 procs for 40000 steps with 72040 atoms

Performance: 1.027 ns/day, 23.364 hours/ns, 11.889 timesteps/s
99.7% CPU use with 64 MPI tasks x 1 OpenMP threads

MPI task timing breakdown:
Section |  min time  |  avg time  |  max time  |%varavg| %total
---------------------------------------------------------------
Pair    | 367.25     | 886.44     | 1297.5     | 899.1 | 26.35
Bond    | 20.755     | 50         | 64.929     | 164.2 |  1.49
Kspace  | 141.77     | 565.75     | 1113.6     |1175.0 | 16.82
Neigh   | 1672.1     | 1698.9     | 1718.2     |  35.8 | 50.49
Comm    | 78.986     | 107.31     | 161.74     | 198.4 |  3.19
Output  | 1.2961     | 1.3204     | 1.3703     |   1.2 |  0.04
Modify  | 23.984     | 52.331     | 61.899     | 144.4 |  1.56
Other   |            | 2.421      |            |       |  0.07

Nlocal:        1125.62 ave        1907 max           4 min
Histogram: 4 8 4 8 5 2 2 5 7 19
Nghost:        11941.0 ave       19022 max        4860 min
Histogram: 11 5 12 4 0 0 4 12 4 12
Neighs:       876006.0 ave 1.79282e+06 max        1834 min
Histogram: 12 9 8 2 2 0 6 6 11 8

Total # of neighbors = 56064401
Ave neighs/atom = 778.23988
Ave special neighs/atom = 5.9972238
Neighbor list builds = 40000
Dangerous builds not checked
Total wall time: 0:56:09
