LAMMPS (29 Oct 2020)
OMP_NUM_THREADS environment is not set. Defaulting to 1 thread. (../comm.cpp:94)
  using 1 OpenMP thread(s) per MPI task
####################################################
#    This program is free software: you can redistribute it and/or modify
#    it under the terms of the GNU General Public License as published by
#    the Free Software Foundation, either version 3 of the License, or
#    (at your option) any later version.
#
#    This program is distributed in the hope that it will be useful,
#    but WITHOUT ANY WARRANTY; without even the implied warranty of
#    MERCHANTABILITY or FITNESS FOR A PARTICULAR PURPOSE.  See the
#    GNU General Public License for more details.


units		real        ## defines the units style used herein. More information: https://docs.lammps.org/units.html
atom_style	full        ## defines the atom style used herein. More information: https://docs.lammps.org/atom_style.html

# Styles
pair_style      lj/cut/coul/long 15.0 10.0      ## sets the formula(s) LAMMPS uses to compute pairwise interactions; here, lennard-jones (LJ) with long-range Coulomb interaction. More: https://docs.lammps.org/pair_lj_cut_coul.html
pair_modify     shift no                        ## the shift keyword determines whether a Lennard-Jones potential is shifted at its cutoff to 0.0. More: https://docs.lammps.org/pair_modify.html
kspace_style    pppm 1.0e-4                     ## defines a long-range solver for LAMMPS to compute long-range Coulombic interactions. Note: requires use of a matching pair style, i.e. PPPM with coul/long. More: https://docs.lammps.org/kspace_style.html
bond_style      harmonic                        ## defined based off the forcefield used to construct the system; models the atoms' interactions
angle_style     harmonic
dihedral_style  opls
improper_style  cvff
special_bonds   lj 0 0 1 coul 0 0 1

read_data       300K_PMP.lmps      ## input lammps datafile, equilibriated until structure nears experimental properties
Reading data file ...
  orthogonal box = (81.194286 81.194286 81.194286) to (168.80571 168.80571 168.80571)
  4 by 4 by 4 MPI processor grid
  reading atoms ...
  72040 atoms
  reading velocities ...
  72040 velocities
  scanning bonds ...
  2 = max bonds/atom
  scanning angles ...
  6 = max angles/atom
  scanning dihedrals ...
  15 = max dihedrals/atom
  reading bonds ...
  72020 bonds
  reading angles ...
  143880 angles
  reading dihedrals ...
  215640 dihedrals
Finding 1-2 1-3 1-4 neighbors ...
  special bond factors lj:    0.0      0.0      1.0     
  special bond factors coul:  0.0      0.0      1.0     
     4 = max # of 1-2 neighbors
     9 = max # of 1-3 neighbors
    13 = max # of special neighbors
  special bonds CPU = 1.615 seconds
  read_data CPU = 3.427 seconds

dielectric      1.0
neighbor    	1.0 bin
neigh_modify	delay 0 every 1 check no        ## this is to make sure that the neighbor list is updated every timestep, and the atoms don't get lost as the system is being deformed ##

timestep	    1.0                             ## unit = fs, per "real" unit style
run_style       verlet                          ## defines algorithm used for simulation computation; verlet integration is a numerical method used to integrate Newton's equations of motion.

variable stress equal press*-1                         ## computes stress as the negative of press values
variable engStrain equal (lx-91.07191)/91.07191      ## computes engineering strain; lx_0 must be found and inputted manually (for now)

thermo		    20                                                               ## output log data (headers in thermo_style), recorded at every timestep in numList.txt
thermo_style    custom step vol temp press lx ly lz v_stress v_engStrain         ## data headers of output log file. More: https://docs.lammps.org/thermo_style.html

################# Deformation ##################

fix 1 all npt temp 300 300 100 y 1 1 100.0 z 1 1 100.0      ## stress normal to the x direction can vary; external pressure (y and z) = 1atm ##

fix 2 all deform 1 x scale 2.0 remap x                      ## sets a uniaxial (x-direction) deformation in motion, scaling a set amount (here, 4.0x) the initial length


################# Dumping ##################

reset_timestep 0

dump dump2 all custom 4000 sim.lammpstrj id mol type q xs ys zs ix iy iz

restart 8000 PMP.restart

run 		80000              ## this depends on the overall strain rate, where strain rate = deformScale / runTimeSteps (consider units!)
PPPM initialization ...
  using 12-bit tables for long-range coulomb (../kspace.cpp:328)
  G vector (1/distance) = 0.2058473
  grid = 24 24 24
  stencil order = 5
  estimated absolute RMS force accuracy = 0.021221725
  estimated relative force accuracy = 6.3908593e-05
  using double precision FFTW3
  3d grid and FFT values/proc = 1331 216
Neighbor list info ...
  update every 1 steps, delay 0 steps, check no
  max neighbors/atom: 2000, page size: 100000
  master list distance cutoff = 16
  ghost atom cutoff = 16
  binsize = 8, bins = 11 11 11
  1 neighbor lists, perpetual/occasional/extra = 1 0 0
  (1) pair lj/cut/coul/long, perpetual
      attributes: half, newton on
      pair build: half/bin/newton
      stencil: half/bin/3d/newton
      bin: standard
Per MPI rank memory allocation (min/avg/max) = 31.97 | 32.37 | 32.76 Mbytes
Step Volume Temp Press Lx Ly Lz v_stress v_engStrain 
       0    672484.51    301.29368    7181.6592    87.611428    87.611428    87.611428   -7181.6592 -0.037997245 
      20    679839.87    309.19559    950.48033    87.633331    88.083807    88.072685   -950.48033 -0.037756744 
      40    682128.06    305.65469   -1170.4551    87.655234    88.198857    88.231793    1170.4551 -0.037516243 
      60    678766.64    305.27498   -633.15908    87.677137    88.005818      87.9676    633.15908 -0.037275743 
      80    678286.97    305.93229   -550.53133     87.69904    87.967787    87.921476    550.53133 -0.037035242 
     100    678868.65    305.47706   -910.59395    87.720943     87.98104    87.961651    910.59395 -0.036794741 
     120    678395.29     304.7829    671.72162    87.742845    87.906635    87.952755   -671.72162 -0.036554241 
     140    680068.26    305.42913     445.0331    87.764748    87.987832    88.066306    -445.0331  -0.03631374 
     160    678812.54    304.14103    238.78428    87.786651    87.901235     87.96834   -238.78428 -0.036073239 
     180    678501.69    303.16136    117.90689    87.808554    87.857437    87.949946   -117.90689 -0.035832738 
     200    679995.03    304.14654   -44.499109    87.830457    87.927499    88.051321    44.499109 -0.035592238 
     220    680408.76    301.06252   -61.164103     87.85236    88.018734    87.991628    61.164103 -0.035351737 
     240     680252.6    302.16641   -154.95169    87.874263    87.992756    87.975471    154.95169 -0.035111236 
     260    679740.41    302.22303    38.155839    87.896165    87.941748      87.9383   -38.155839 -0.034870736 
     280    681004.55    299.43644    -289.9011    87.918068    88.026486    87.995104     289.9011 -0.034630235 
     300    680947.45    300.50713   -100.57811    87.939971    87.943823    88.048495    100.57811 -0.034389734 
     320    679958.24    300.81243    456.90466    87.961874    87.829524    88.013084   -456.90466 -0.034149234 
     340    680001.45    301.44336    813.10119    87.983777    87.841173    87.985096   -813.10119 -0.033908733 
     360    681833.53    300.47348   -880.89254     88.00568     87.92007    88.121042    880.89254 -0.033668232 
     380    680389.04    300.42068   -273.59222    88.027583    87.759833    88.072991    273.59222 -0.033427732 
     400    679866.25    299.33443    183.86692    88.049485    87.728967    88.014382   -183.86692 -0.033187231 
     420    680259.52    299.34827     99.14788    88.071388    87.712873    88.059547    -99.14788  -0.03294673 
     440    680472.27    299.69194    99.451479    88.093291    87.726189    88.051819   -99.451479 -0.032706229 
     460    680929.56    299.12256   -262.59794    88.115194    87.732139    88.083116    262.59794 -0.032465729 
     480    680441.15    298.85943    -167.2588    88.137097    87.687679     88.04268     167.2588 -0.032225228 
     500    680960.34    298.80769    43.127201       88.159    87.743899    88.031527   -43.127201 -0.031984727 
     520    682119.54    298.95581   -259.68971    88.180903    87.840018    88.063012    259.68971 -0.031744227 
     540    681344.82    299.35074    288.48969    88.202805     87.79167    87.989581   -288.48969 -0.031503726 
     560    680960.44    298.45979    142.82279    88.224708    87.732376    87.977529   -142.82279 -0.031263225 
     580    680663.28    299.88496     194.0155    88.246611    87.697378    87.952396    -194.0155 -0.031022725 
     600    680593.66    298.89732   -216.62887    88.268514    87.663512    87.955544    216.62887 -0.030782224 
     620    680789.72    300.71191   -364.09047    88.290417    87.698178    87.924286    364.09047 -0.030541723 
     640    680607.43    299.96744   -346.51153     88.31232    87.696966    87.880157    346.51153 -0.030301223 
     660    680322.71    299.28588  -0.68793284    88.334223    87.671626    87.846996   0.68793284 -0.030060722 
     680    680454.59    299.87335    135.69605    88.356125    87.640227    87.873715   -135.69605 -0.029820221 
     700    680896.12    300.93054    -16.78925    88.378028    87.627977    87.921232     16.78925 -0.029579721 
     720    681039.89    301.04408     48.31408    88.399931    87.562656    87.983594    -48.31408  -0.02933922 
     740    681060.14    299.83893   -165.62586    88.421834    87.560317    87.966764    165.62586 -0.029098719 
     760     680749.2    301.09993   -6.2103958    88.443737    87.623125    87.841818    6.2103958 -0.028858218 
     780    680826.08    300.99865   -135.02494     88.46564     87.63817    87.814909    135.02494 -0.028617718 
     800     681139.4    302.07114   -148.17008    88.487543    87.622526    87.849259    148.17008 -0.028377217 
     820       681604    300.45497    -185.6312    88.509445    87.656951    87.852909     185.6312 -0.028136716 
     840     681605.6    300.77327    72.811006    88.531348    87.711619    87.776638   -72.811006 -0.027896216 
     860    681635.73    299.73839    275.03294    88.553251    87.726473    87.743947   -275.03294 -0.027655715 
     880    681978.45    299.99771   -200.27309    88.575154    87.720116    87.772715    200.27309 -0.027415214 
     900    681242.66    300.45919   -236.18929    88.597057     87.63123    87.745253    236.18929 -0.027174714 
     920    681415.55    301.31312   -239.97442     88.61896    87.612265    87.764823    239.97442 -0.026934213 
     940    682163.89    299.47864   -329.69664    88.640863    87.646858    87.804829    329.69664 -0.026693712 
     960    681827.64    299.93163    53.556232    88.662765    87.604777    87.782015   -53.556232 -0.026453212 
     980    681873.69     300.8084    391.79198    88.684668    87.657981    87.712992   -391.79198 -0.026212711 
    1000    682200.38    300.14572     166.4323    88.706571    87.652617    87.738717    -166.4323  -0.02597221 
    1020    682233.38    299.04255    102.71114    88.728474    87.682811    87.691093   -102.71114  -0.02573171 
    1040    682540.29    299.61636   -460.91962    88.750377    87.680977    87.710726    460.91962 -0.025491209 
    1060     682311.7     300.2114   -266.27831     88.77228    87.687583    87.653113    266.27831 -0.025250708 
    1080    682379.64    299.37869   -290.10892    88.794183    87.670395      87.6574    290.10892 -0.025010207 
    1100    682991.15    299.33478   -275.61053    88.816085    87.705237    87.679471    275.61053 -0.024769707 
    1120    682502.56     299.9652    181.61607    88.837988    87.598175    87.702204   -181.61607 -0.024529206 
    1140    682287.01    299.55991    150.23416    88.859891     87.62954    87.621522   -150.23416 -0.024288705 
    1160    682599.16    299.63448    60.472746    88.881794    87.655332     87.61422   -60.472746 -0.024048205 
    1180    682654.59    300.45801   -331.49656    88.903697     87.61244    87.642633    331.49656 -0.023807704 
    1200    682808.38    299.92017   -558.17796      88.9256    87.668437    87.584806    558.17796 -0.023567203 
    1220    682406.43    300.53186   -195.75338    88.947503    87.644152    87.535942    195.75338 -0.023326703 
    1240    682488.25    299.70298    73.856521    88.969405    87.603223    87.565776   -73.856521 -0.023086202 
    1260    683707.93    299.11594   -243.11258    88.991308    87.696469    87.607425    243.11258 -0.022845701 
    1280    683393.44    299.96026   -198.42999    89.013211    87.657727    87.584273    198.42999 -0.022605201 
    1300     683269.4    300.03127    105.52868    89.035114    87.633367    87.571171   -105.52868   -0.0223647 
    1320    683968.35    300.30672    82.081209    89.057017    87.708925    87.563693   -82.081209 -0.022124199 
    1340    683951.14    299.90831   -574.96675     89.07892    87.657241    87.591576    574.96675 -0.021883698 
    1360       683765     299.9036   -292.30975    89.100823    87.675883    87.527596    292.30975 -0.021643198 
    1380    683459.67    300.00302   0.98706367    89.122725    87.704013    87.438957  -0.98706367 -0.021402697 
    1400    682852.19    300.99692    5.1203799    89.144628    87.589973    87.453488   -5.1203799 -0.021162196 
    1420    683775.39     300.7802     109.0284    89.166531    87.628954    87.511265    -109.0284 -0.020921696 
    1440    684217.13    301.37583   -117.32203    89.188434    87.677806    87.497517    117.32203 -0.020681195 
    1460    683395.55    301.24764    50.534705    89.210337    87.568615    87.479942   -50.534705 -0.020440694 
    1480     684435.4     301.6633   -350.94902     89.23224    87.616737    87.543438    350.94902 -0.020200194 
    1500    684823.75    300.96487   -167.59648    89.254143    87.643933    87.544441    167.59648 -0.019959693 
    1520    684902.41    301.04536   -51.983373    89.276045    87.655488    87.521478    51.983373 -0.019719192 
    1540    685443.91    300.62335   -324.60893    89.297948    87.676454    87.548249    324.60893 -0.019478692 
    1560    684461.23    301.50805   -74.891685    89.319851    87.607773    87.469819    74.891685 -0.019238191 
    1580    684548.67    300.93016    19.152132    89.341754    87.609409    87.457912   -19.152132  -0.01899769 
    1600    685173.64    300.34078    -262.4645    89.363657    87.665808    87.460001     262.4645  -0.01875719 
    1620    685182.74    300.65709   -175.58476     89.38556    87.663688    87.441846    175.58476 -0.018516689 
    1640    684637.33    299.33343    51.086045    89.407463    87.617939    87.396446   -51.086045 -0.018276188 
    1660    684704.51    299.09307   -371.72106    89.429365    87.648362    87.353284    371.72106 -0.018035687 
    1680    684474.65    300.51785   -270.23435    89.451268    87.640783    87.310126    270.23435 -0.017795187 
    1700    684387.55    299.55297   -223.42099    89.473171    87.604089    87.314203    223.42099 -0.017554686 
    1720     684865.5    300.59702   -223.67466    89.495074     87.54375    87.414003    223.67466 -0.017314185 
    1740    685636.52    299.45176    -644.0924    89.516977    87.563846    87.470923     644.0924 -0.017073685 
    1760    685050.14    299.09866   -106.01991     89.53888    87.492022    87.446464    106.01991 -0.016833184 
    1780    684855.43    300.00183    12.524997    89.560783    87.431462    87.460768   -12.524997 -0.016592683 
    1800    685659.32    300.22291    12.726726    89.582685    87.465072    87.508381   -12.726726 -0.016352183 
    1820    686324.17    298.95784    154.24737    89.604588     87.48402    87.552855   -154.24737 -0.016111682 
    1840    686506.88    299.84576   -122.37663    89.626491    87.509375    87.529392    122.37663 -0.015871181 
    1860    686632.43    298.88441   -383.43197    89.648394    87.567989    87.465427    383.43197 -0.015630681 
    1880    687378.73     299.5267    -810.6146    89.670297    87.586132    87.520972     810.6146  -0.01539018 
    1900    686709.16    299.96853    86.599305      89.6922    87.493977    87.506439   -86.599305 -0.015149679 
    1920    687276.28    300.86456     82.59808    89.714103    87.533053    87.518237    -82.59808 -0.014909179 
    1940    687650.83    300.22713   -253.26424    89.736005    87.559932    87.517685    253.26424 -0.014668678 
    1960     687176.1    302.09313    177.84292    89.757908    87.505061    87.490752   -177.84292 -0.014428177 
    1980    687964.21    302.10073    86.231873    89.779811    87.494126    87.580669   -86.231873 -0.014187676 
    2000    688613.43    300.30149   -509.53881    89.801714    87.457434    87.678706    509.53881 -0.013947176 
    2020    688780.42    300.66748   -506.64713    89.823617    87.414828    87.721317    506.64713 -0.013706675 
    2040    688302.21    301.00127    -126.0452     89.84552    87.355438    87.698627     126.0452 -0.013466174 
    2060    688622.99    300.71591    -273.9724    89.867423    87.430533    87.642772     273.9724 -0.013225674 
    2080    688645.31    300.88666   -203.64608    89.889325    87.439411     87.61536    203.64608 -0.012985173 
    2100    688808.86    300.87253    122.14027    89.911228    87.435578     87.61866   -122.14027 -0.012744672 
    2120    688676.54    301.11581   -160.17196    89.933131    87.446866    87.569188    160.17196 -0.012504172 
    2140     688144.1    300.06022   -1.1509893    89.955034     87.40916    87.517917    1.1509893 -0.012263671 
    2160    688286.48    300.90309   -313.68901    89.976937    87.379511    87.544411    313.68901  -0.01202317 
    2180    688250.42    299.71307   -366.74544     89.99884    87.283794    87.614495    366.74544  -0.01178267 
    2200     688577.4    300.26704   -639.32608    90.020743    87.339678    87.578719    639.32608 -0.011542169 
    2220    688445.32    300.03861   -496.87232    90.042645     87.33481      87.5455    496.87232 -0.011301668 
    2240    688186.05    299.43298   -33.804958    90.064548    87.281187       87.545    33.804958 -0.011061167 
    2260    687711.44    300.00132    295.28197    90.086451    87.285037    87.459496   -295.28197 -0.010820667 
    2280    688183.87     298.8158   -103.80794    90.108354    87.338907    87.444334    103.80794 -0.010580166 
    2300    688231.64    299.46132    -52.32093    90.130257    87.368676    87.399364     52.32093 -0.010339665 
    2320    688478.06    298.80504   -564.88157     90.15216    87.438201    87.339913    564.88157 -0.010099165 
    2340    688575.18    300.04641    -791.4022    90.174063    87.471713    87.297557     791.4022 -0.0098586641 
    2360    688691.02    300.24602   -255.23886    90.195965     87.41011    87.352561    255.23886 -0.0096181634 
    2380    688792.56    298.75661     45.46814    90.217868     87.42784    87.326517    -45.46814 -0.0093776627 
    2400    688977.65    299.52935    23.815701    90.239771    87.448002    87.308647   -23.815701 -0.009137162 
    2420    688909.65    300.31874    -467.9589    90.261674     87.39506    87.331717     467.9589 -0.0088966613 
    2440    688542.55    299.88633   -31.538762    90.283577    87.380929    87.278117    31.538762 -0.0086561606 
    2460    688798.68    300.56367   -435.81757     90.30548    87.347232    87.323082    435.81757 -0.0084156599 
    2480    688632.97    300.65564   -404.78383    90.327383    87.335253    87.292876    404.78383 -0.0081751592 
    2500    688697.94    300.20368   -178.91744    90.349285    87.338652    87.276551    178.91744 -0.0079346585 
    2520    689395.45    300.37592   -434.07753    90.371188    87.394843    87.287612    434.07753 -0.0076941579 
    2540    688777.09    300.31032   -52.556473    90.393091    87.294203    87.288705    52.556473 -0.0074536572 
    2560    688826.66    300.60807   -128.73223    90.414994    87.292035    87.276008    128.73223 -0.0072131565 
    2580    688640.72    300.64991    113.84904    90.436897    87.289978    87.233373   -113.84904 -0.0069726558 
    2600    688869.64    300.68808   -430.65591      90.4588    87.246037     87.28518    430.65591 -0.0067321551 
    2620    688822.38    300.35664   -641.57072    90.480703    87.181997    87.322161    641.57072 -0.0064916544 
    2640    688073.13    301.95293   -414.58705    90.502605    87.163143    87.224931    414.58705 -0.0062511537 
    2660    687324.02    300.69013   -241.87697    90.524508     87.10958     87.16245    241.87697 -0.006010653 
    2680    687522.78    301.79952   -477.86936    90.546411    86.997739    87.278623    477.86936 -0.0057701523 
    2700    687179.94    301.99031    23.274395    90.568314    86.951942     87.25994   -23.274395 -0.0055296517 
    2720    687336.47    300.61769   -87.697558    90.590217    86.922753    87.288014    87.697558 -0.005289151 
    2740    687333.18    301.90757    -453.2637     90.61212    86.932955    87.256257     453.2637 -0.0050486503 
    2760    686824.98    301.19289   -403.49062    90.634023    86.883961    87.219825    403.49062 -0.0048081496 
    2780    686766.73    299.81374   -441.57822    90.655925     86.92616     87.14903    441.57822 -0.0045676489 
    2800     686639.8    299.54645    -455.3032    90.677828    86.914978    87.123083     455.3032 -0.0043271482 
    2820    686514.92    299.28612   -138.16698    90.699731    86.902252    87.098956    138.16698 -0.0040866475 
    2840    687162.17    299.23838   -321.20995    90.721634    86.947663    87.114503    321.20995 -0.0038461468 
    2860     687094.9    300.41039   -473.78432    90.743537    86.937048    87.095583    473.78432 -0.0036056461 
    2880    687405.78    299.85313    38.585766     90.76544    86.932141    87.118881   -38.585766 -0.0033651455 
    2900    688271.43    299.06913   -270.52579    90.787343    86.980907    87.158652    270.52579 -0.0031246448 
    2920     688609.6    299.71248     245.2977    90.809245    86.975635    87.185728    -245.2977 -0.0028841441 
    2940    689303.77    298.74991   -221.27213    90.831148    86.997671    87.230472    221.27213 -0.0026436434 
    2960    689059.81    299.33572    -396.0252    90.853051    86.964338    87.211993     396.0252 -0.0024031427 
    2980    689407.07    299.92873   -908.01884    90.874954    86.883338    87.316241    908.01884 -0.002162642 
    3000    689228.43    300.25718   -531.92347    90.896857    86.890551    87.265337    531.92347 -0.0019221413 
    3020    688619.29    300.57868   -167.35779     90.91876    86.895734    87.162009    167.35779 -0.0016816406 
    3040    687856.61    300.58181    320.23725    90.940663    86.794629    87.145898   -320.23725 -0.0014411399 
    3060    688505.47    298.94229   -54.113358    90.962565    86.822764     87.17884    54.113358 -0.0012006393 
    3080    688335.64     300.9632   -152.86828    90.984468    86.796024      87.1632    152.86828 -0.00096013857 
    3100    688970.18    299.42479   -512.51691    91.006371     86.78632    87.232306    512.51691 -0.00071963788 
    3120    689051.12    298.99671   -415.03778    91.028274     86.83629    87.171371    415.03778 -0.00047913719 
    3140    688517.98    300.81835   -441.29266    91.050177    86.737628    87.182024    441.29266 -0.0002386365 
    3160    689058.32    299.66789   -259.51554     91.07208     86.72434    87.242825    259.51554 1.8641892e-06 
    3180       689260    301.05636    13.312459    91.093983    86.784519    87.186878   -13.312459 0.00024236488 
    3200    689591.28    302.11992   -138.10723    91.115885    86.820178    87.171995    138.10723 0.00048286557 
    3220    690257.62    300.51538    74.976183    91.137788    86.839639    87.215709   -74.976183 0.00072336626 
    3240    690705.16    302.00675    -284.0548    91.159691    86.858992    87.231846     284.0548 0.00096386694 
    3260    690179.67    300.83262      -102.18    91.181594    86.798706    87.205069       102.18 0.0012043676 
    3280    690846.98    300.94487   -649.31119    91.203497    86.866006     87.20081    649.31119 0.0014448683 
    3300    690757.78    300.23116   -749.54163      91.2254    86.878958    87.155622    749.54163  0.001685369 
    3320    690448.33    299.13617   -235.17309    91.247303    86.844491    87.130233    235.17309 0.0019258697 
    3340    690220.48    299.85498    337.75528    91.269205    86.807575     87.11761   -337.75528 0.0021663704 
    3360    690642.75    299.62027   -329.07529    91.291108     86.75551    87.202295    329.07529 0.0024068711 
    3380    690314.39    300.83494   -251.86681    91.313011    86.766132     87.12926    251.86681 0.0026473718 
    3400    690444.14    298.97139   -779.90541    91.334914    86.822723     87.06795    779.90541 0.0028878725 
    3420    689446.49    300.11369    -294.9822    91.356817    86.703485    87.040836     294.9822 0.0031283731 
    3440    689470.42    299.41385   -147.68905     91.37872    86.713971    87.012469    147.68905 0.0033688738 
    3460    689301.83    300.91574   -173.72579    91.400623     86.77929    86.904884    173.72579 0.0036093745 
    3480    689775.41    299.04565    -180.9094    91.422525    86.754857    86.968243     180.9094 0.0038498752 
    3500    690034.19    299.60407   -417.61687    91.444428    86.750906    86.983993    417.61687 0.0040903759 
    3520    690104.17    299.67724    213.74964    91.466331    86.779077    86.943749   -213.74964 0.0043308766 
    3540    690924.55    299.17645   -293.91222    91.488234    86.795177    87.010123    293.91222 0.0045713773 
    3560    691433.83    299.23983   -697.41489    91.510137    86.823841    87.024678    697.41489  0.004811878 
    3580       691331    299.36935   -521.52576     91.53204    86.811517    87.003264    521.52576 0.0050523787 
    3600    691539.04    299.20324   -147.88677    91.553943    86.798686    87.021488    147.88677 0.0052928793 
    3620    692047.54    299.47917   -347.92747    91.575845    86.847057    87.016154    347.92747   0.00553338 
    3640    691559.91    300.26737   -35.538504    91.597748    86.815992    86.965157    35.538504 0.0057738807 
    3660    692923.29     299.9318   -397.03794    91.619651    86.897332    87.034228    397.03794 0.0060143814 
    3680    693071.44    300.89965   -350.85408    91.641554    86.912184    87.017158    350.85408 0.0062548821 
    3700    692742.77    301.60287   -490.29862    91.663457    86.816731    87.050715    490.29862 0.0064953828 
    3720    692903.13    301.43802   -501.45717     91.68536    86.826344    87.040428    501.45717 0.0067358835 
    3740    692602.62    301.26866   -327.14878    91.707263    86.839515    86.968707    327.14878 0.0069763842 
    3760    691838.11    300.67269   -130.85217    91.729165    86.734764    86.956857    130.85217 0.0072168849 
    3780    692230.42    301.24469   -14.710274    91.751068    86.756098    86.964007    14.710274 0.0074573855 
    3800    692849.56    300.36908   -251.56735    91.772971    86.820486    86.956478    251.56735 0.0076978862 
    3820    693282.63    302.91688   -633.03079    91.794874    86.819749    86.990807    633.03079 0.0079383869 
    3840    693261.92    300.88954   -506.26389    91.816777    86.792899    86.994362    506.26389 0.0081788876 
    3860     692507.1    300.46181   -95.156323     91.83868    86.763845    86.908011    95.156323 0.0084193883 
    3880    693240.17    299.84575    -553.7217    91.860583    86.767779    86.975321     553.7217  0.008659889 
    3900    693607.84    301.12559   -440.26861    91.882485    86.754736    87.013787    440.26861 0.0089003897 
    3920    692844.71    299.25769   -171.86772    91.904388    86.668714    86.983585    171.86772 0.0091408904 
    3940    692756.74    299.18762   -433.71034    91.926291    86.649313    86.971288    433.71034 0.0093813911 
    3960    693101.95    300.69543    -403.9995    91.948194    86.660272    86.982897     403.9995 0.0096218917 
    3980    693078.86    300.52663   -431.38665    91.970097    86.668428    86.951101    431.38665 0.0098623924 
    4000    693038.29    300.28235   -330.15785       91.992    86.673815    86.919908    330.15785  0.010102893 
    4020    693247.65    300.27873   -303.96575    92.013903    86.739465    86.859678    303.96575  0.010343394 
    4040    693199.63     299.4378   -124.29203    92.035805    86.701255     86.87126    124.29203  0.010583894 
    4060    693597.58    300.12689   -455.19649    92.057708    86.711843     86.88984    455.19649  0.010824395 
    4080    693516.48    299.23304    -392.2133    92.079611    86.709563    86.861297     392.2133  0.011064896 
    4100    693098.32    300.14425   -499.38264    92.101514    86.659089    86.838829    499.38264  0.011305397 
    4120    692875.65    299.14266   -105.46372    92.123417    86.686933    86.762414    105.46372  0.011545897 
    4140    693689.59    299.48321   -419.78407     92.14532    86.754467    86.776085    419.78407  0.011786398 
    4160    693306.84    298.62335   -398.12941    92.167223    86.690875    86.771199    398.12941  0.012026899 
    4180    693091.78    299.38649   -519.45467    92.189125     86.69912    86.715427    519.45467  0.012267399 
    4200    693109.85    300.02521    11.898803    92.211028    86.723159    86.673057   -11.898803    0.0125079 
    4220    693287.86    299.25627   -359.92057    92.232931    86.628439      86.7695    359.92057  0.012748401 
    4240    693224.87    301.01814   -522.68478    92.254834    86.602618     86.76688    522.68478  0.012988901 
    4260     692956.6    300.06325   -373.00471    92.276737    86.556768    86.758648    373.00471  0.013229402 
    4280     692995.4    300.52908   -429.22101     92.29864    86.534716    86.765021    429.22101  0.013469903 
    4300    693057.21    301.30162   -9.1082473    92.320543    86.533646    86.753246    9.1082473  0.013710403 
    4320    693538.11    300.43447   -191.49556    92.342445    86.472941    86.853781    191.49556  0.013950904 
    4340    693321.92    300.95736   -240.16411    92.364348    86.423301    86.855977    240.16411  0.014191405 
    4360    693563.96    302.61773   -548.51634    92.386251    86.460016    86.828813    548.51634  0.014431906 
    4380    694020.03    300.54805   -396.66881    92.408154     86.40883    86.916771    396.66881  0.014672406 
    4400    694181.17    301.99218   -698.07069    92.430057    86.405157    86.920045    698.07069  0.014912907 
    4420    694312.97    300.60685   -474.32638     92.45196    86.447286    86.873595    474.32638  0.015153408 
    4440     694529.7    301.45307   -114.21595    92.473863    86.405167     86.92248    114.21595  0.015393908 
    4460    694553.61    301.70063    232.78236    92.495765    86.408528    86.901509   -232.78236  0.015634409 
    4480    695581.48    300.47686   -458.22713    92.517668    86.470393    86.947259    458.22713   0.01587491 
    4500    695624.86    301.27959   -549.60258    92.539571     86.39378    87.009192    549.60258   0.01611541 
    4520    695202.98    301.26964   -260.71642    92.561474    86.399104     86.93049    260.71642  0.016355911 
    4540    695778.07    300.52007   -447.23405    92.583377     86.41637    86.964439    447.23405  0.016596412 
    4560    696179.42    300.25845   -485.40167     92.60528    86.377004     87.03367    485.40167  0.016836912 
    4580    695397.89    299.19467   -14.242248    92.627183    86.369265    86.923197    14.242248  0.017077413 
    4600    695969.12    299.34933   -299.30953    92.649085    86.410438    86.932592    299.30953  0.017317914 
    4620    695933.84    300.14175   -440.75289    92.670988    86.322234    86.996441    440.75289  0.017558414 
    4640     695325.7    298.94463    91.177533    92.692891     86.31299    86.909188   -91.177533  0.017798915 
    4660    695474.55    300.40271   -328.65835    92.714794       86.338    86.882082    328.65835  0.018039416 
    4680    695475.71     299.9649   -653.87266    92.736697    86.356199    86.843401    653.87266  0.018279917 
    4700    695413.24    300.18415   -872.02074      92.7586     86.38405    86.787106    872.02074  0.018520417 
    4720    695631.69    301.48446   -593.73281    92.780503    86.339296    86.838865    593.73281  0.018760918 
    4740    695461.15    300.26698   -281.75199    92.802405    86.269985    86.866819    281.75199  0.019001419 
    4760    694990.84    300.09192    32.553986    92.824308    86.217752     86.84017   -32.553986  0.019241919 
    4780    695525.17     299.1593    174.86871    92.846211    86.234258    86.869803   -174.86871   0.01948242 
    4800    696494.86    299.50168   -587.41692    92.868114    86.289069    86.915155    587.41692  0.019722921 
    4820    696083.57    298.30901   -582.06546    92.890017    86.252893    86.879772    582.06546  0.019963421 
    4840    696140.54    299.97397   -495.61786     92.91192    86.255192    86.864084    495.61786  0.020203922 
    4860    696446.61    298.47024   -627.38268    92.933823    86.306408    86.830236    627.38268  0.020444423 
    4880    696103.74    299.39588   -374.30617    92.955725      86.2867    86.786857    374.30617  0.020684923 
    4900    696388.13    300.24341   -232.36651    92.977628     86.27639    86.812234    232.36651  0.020925424 
    4920    696246.01    299.37703    63.084596    92.999531    86.334061     86.71611   -63.084596  0.021165925 
    4940    696760.43    300.15114   -247.43699    93.021434    86.379934    86.713673    247.43699  0.021406425 
    4960    696712.87    299.94539   -328.36405    93.043337    86.370955    86.696354    328.36405  0.021646926 
    4980    696227.87    299.62518   -531.58929     93.06524    86.355981    86.630632    531.58929  0.021887427 
    5000    696103.86    301.10808    -710.0851    93.087143    86.348102    86.602723     710.0851  0.022127928 
    5020    696887.92    299.17605   -798.36848    93.109045    86.419881    86.607878    798.36848  0.022368428 
    5040    696670.29    300.48424   -214.41577    93.130948    86.413484    86.566877    214.41577  0.022608929 
    5060    696997.84    301.18485   -150.35149    93.152851    86.445597    86.555048    150.35149   0.02284943 
    5080    697786.91    300.34476   -42.807072    93.174754    86.495408    86.582777    42.807072   0.02308993 
    5100    698021.67    300.96307   -180.06886    93.196657    86.448433    86.638604    180.06886  0.023330431 
    5120    697897.04    302.10405   -447.49554     93.21856    86.385966    86.665406    447.49554  0.023570932 
    5140    698911.55    300.44683   -1062.1702    93.240463    86.495292    86.661326    1062.1702  0.023811432 
    5160    699025.56    300.89008   -738.85835    93.262365    86.487424     86.66299    738.85835  0.024051933 
    5180    698775.48    300.26734      142.733    93.284268      86.4493     86.64984     -142.733  0.024292434 
    5200    699231.21    300.58354   -523.14836    93.306171    86.452058    86.683233    523.14836  0.024532934 
    5220    698887.08    300.88974   -404.61873    93.328074    86.415137    86.657246    404.61873  0.024773435 
    5240    698807.29    300.73031   -374.66981    93.349977    86.394024    86.648193    374.66981  0.025013936 
    5260    699148.59    300.54991   -541.63425     93.37188    86.387381    86.676841    541.63425  0.025254437 
    5280    698864.21    300.39768   -384.43076    93.393783    86.296231    86.712759    384.43076  0.025494937 
    5300    698804.69    298.65667   -354.11844    93.415685    86.261534    86.719913    354.11844  0.025735438 
    5320    698877.26    300.10172   -522.21833    93.437588    86.254405    86.715755    522.21833  0.025975939 
    5340    699193.72    300.20365   -522.89845    93.459491    86.257952    86.731121    522.89845  0.026216439 
    5360    699744.85    300.37529   -414.14638    93.481394    86.322085    86.714677    414.14638   0.02645694 
    5380    698264.03    300.62084    178.00145    93.503297    86.229515    86.603771   -178.00145  0.026697441 
    5400    698939.06    298.81133   -580.60918      93.5252    86.250676    86.645928    580.60918  0.026937941 
    5420    699108.88    300.23188   -725.81323    93.547103    86.280207    86.617032    725.81323  0.027178442 
    5440    698351.24    299.00271   -344.76402    93.569005     86.22991    86.553367    344.76402  0.027418943 
    5460    699165.57    299.84179   -393.73463    93.590908    86.261709    86.602078    393.73463  0.027659443 
    5480       700134    299.28604      -501.28    93.612811    86.333949    86.629195       501.28  0.027899944 
    5500    700151.65    299.25234   -154.22348    93.634714    86.355067    86.589933    154.22348  0.028140445 
    5520    700757.73    298.86166   -456.52326    93.656617    86.385581    86.614016    456.52326  0.028380945 
    5540    700910.19    300.35535   -586.71361     93.67852    86.382341    86.615853    586.71361  0.028621446 
    5560    700699.77    300.19193   -457.85683    93.700423     86.38743    86.564509    457.85683  0.028861947 
    5580    700813.58    299.74713   -297.73668    93.722325     86.41118    86.534546    297.73668  0.029102448 
    5600    700405.38    301.20639   -293.80607    93.744228    86.406125    86.468993    293.80607  0.029342948 
    5620    701221.47    300.91321   -466.40736    93.766131    86.438169    86.517438    466.40736  0.029583449 
    5640    701497.68    300.46509   -351.30635    93.788034     86.38345    86.586117    351.30635   0.02982395 
    5660    701392.31    301.96505   -328.17372    93.809937    86.341527    86.594923    328.17372   0.03006445 
    5680    700860.71    301.49248   -534.68093     93.83184    86.307685    86.543013    534.68093  0.030304951 
    5700    700475.94    300.51672   -634.36285    93.853743    86.180093    86.603346    634.36285  0.030545452 
    5720    699708.89    301.37036    -320.0488    93.875645    86.064399    86.604591     320.0488  0.030785952 
    5740    700149.15     301.3866   -642.73269    93.897548    86.096951    86.606112    642.73269  0.031026453 
    5760    699590.12     300.3139   -30.201376    93.919451    86.084281    86.529515    30.201376  0.031266954 
    5780    699462.68    300.00809   -151.69138    93.941354    86.117894    86.459821    151.69138  0.031507454 
    5800    700184.79    300.37565    -463.1155    93.963257    86.165831    86.480767     463.1155  0.031747955 
    5820    700663.96    299.87402   -623.06695     93.98516    86.181161    86.504392    623.06695  0.031988456 
    5840    700496.48    299.83405   -318.17186    94.007063    86.202866    86.441794    318.17186  0.032228956 
    5860    701412.62    299.10277   -767.89206    94.028965    86.260213    86.477154    767.89206  0.032469457 
    5880     700936.4    298.88866   -386.04874    94.050868    86.224718    86.433883    386.04874  0.032709958 
    5900    700490.73    299.10062   -119.16853    94.072771    86.242801    86.340707    119.16853  0.032950459 
    5920     701032.1    300.24711   -452.09392    94.094674    86.245355    86.384764    452.09392  0.033190959 
    5940    701258.09    298.72502   -543.53171    94.116577    86.219433    86.418476    543.53171   0.03343146 
    5960    700870.22     300.1183   -333.24231     94.13848    86.164814    86.405317    333.24231  0.033671961 
    5980    701135.29    300.15523   -413.90408    94.160383    86.160423    86.422294    413.90408  0.033912461 
    6000     701278.2    298.99447   -639.80994    94.182285    86.155271    86.424975    639.80994  0.034152962 
    6020     700887.9    300.37166   -533.86653    94.204188    86.154552    86.357512    533.86653  0.034393463 
    6040    700892.88     299.7023   -159.11965    94.226091    86.194593    86.297944    159.11965  0.034633963 
    6060    701761.22    300.30085   -491.02162    94.247994    86.240436    86.338859    491.02162  0.034874464 
    6080     701903.5     300.2708   -320.68282    94.269897    86.261984    86.314733    320.68282  0.035114965 
    6100     701205.4    300.40371     4.338586      94.2918    86.206877    86.263965    -4.338586  0.035355465 
    6120    701716.18    300.23563   -474.87366    94.313703    86.277205    86.236402    474.87366  0.035595966 
    6140    701739.17    301.10563   -732.37122    94.335605    86.287082    86.209336    732.37122  0.035836467 
    6160    702003.79    300.84601   -738.86721    94.357508    86.257733    86.251161    738.86721  0.036076968 
    6180    701674.66    301.01498   -238.34071    94.379411    86.225203    86.223233    238.34071  0.036317468 
    6200    702075.64    301.28179   -262.51892    94.401314    86.230259    86.247433    262.51892  0.036557969 
    6220    702496.03    300.45351   -247.13699    94.423217    86.212683    86.296647    247.13699   0.03679847 
    6240    702147.71    301.40957   -208.75319     94.44512      86.2263    86.220237    208.75319   0.03703897 
    6260    702197.13    301.10221   -501.27755    94.467023    86.207192    86.225422    501.27755  0.037279471 
    6280    701994.53    300.35005   -563.43877    94.488925    86.159542    86.228223    563.43877  0.037519972 
    6300    701483.98     300.9162   -420.26468    94.510828    86.155244     86.14984    420.26468  0.037760472 
    6320     701989.9    299.11392   -969.34467    94.532731    86.230921    86.116355    969.34467  0.038000973 
    6340    702573.74    299.25427   -626.48534    94.554634    86.290103    86.108914    626.48534  0.038241474 
    6360    702075.43    300.06246   -303.79725    94.576537    86.181769    86.136051    303.79725  0.038481974 
    6380    702158.61     299.1574   -284.35248     94.59844    86.087682    86.220441    284.35248  0.038722475 
    6400    703287.96    299.52571   -541.45427    94.620343    86.122078    86.304644    541.45427  0.038962976 
    6420    702833.78    299.43322   -68.578675    94.642245    86.054049    86.297116    68.578675  0.039203476 
    6440    703189.67    299.59681     -299.237    94.664148    86.049422    86.325479      299.237  0.039443977 
    6460    703067.56    299.52588   -730.96098    94.686051    86.014282    86.325775    730.96098  0.039684478 
    6480    702915.61     299.6364   -729.32455    94.707954    85.964551    86.337075    729.32455  0.039924979 
    6500    702733.69    299.21203   -525.84364    94.729857    85.933585     86.32587    525.84364  0.040165479 
    6520    703007.17    300.06089   -640.27652     94.75176    85.923221    86.349916    640.27652   0.04040598 
    6540    702929.86    299.97636   -388.84345    94.773663     85.84841    86.395689    388.84345  0.040646481 
    6560    703111.56    301.12957   -271.22444    94.795565    85.833823    86.412737    271.22444  0.040886981 
    6580    703468.66    300.29701   -232.47198    94.817468    85.818246    86.452343    232.47198  0.041127482 
    6600    703990.96    299.72116   -607.58257    94.839371    85.861521    86.452954    607.58257  0.041367983 
    6620    704287.25    301.11369   -658.76301    94.861274    85.908292    86.422294    658.76301  0.041608483 
    6640    704499.14    299.17249   -327.52503    94.883177    85.890978     86.44576    327.52503  0.041848984 
    6660    705136.79    301.31684   -649.22804     94.90508    85.919577    86.475242    649.22804  0.042089485 
    6680    704596.71    300.15128   -423.13743    94.926983    85.905217    86.403512    423.13743  0.042329985 
    6700    704922.55    301.00404   -411.42037    94.948885    85.911438     86.41727    411.42037  0.042570486 
    6720    705167.65    301.39376   -311.05038    94.970788    85.916803    86.421984    311.05038  0.042810987 
    6740    705483.31    300.14818   -284.69538    94.992691    85.929844    86.427615    284.69538  0.043051487 
    6760    705916.41    301.29182   -438.51721    95.014594    85.940452    86.450066    438.51721  0.043291988 
    6780    705564.96    301.35939   -452.62566    95.036497     85.97216     86.35525    452.62566  0.043532489 
    6800    705326.69    301.41833   -923.82454      95.0584    85.895489    86.383235    923.82454   0.04377299 
    6820    704849.37    302.55704   -571.00365    95.080303    85.867215    86.333308    571.00365   0.04401349 
    6840    705123.56    301.93007   -364.84249    95.102205    85.943239     86.27062    364.84249  0.044253991 
    6860    704707.22    301.63988   -53.359326    95.124108    85.892612    86.250637    53.359326  0.044494492 
    6880    704810.15    301.67067   -413.63664    95.146011    85.847487    86.288711    413.63664  0.044734992 
    6900    704641.57    300.48098   -698.88129    95.167914    85.904146    86.191331    698.88129  0.044975493 
    6920    704254.63    301.05539   -767.09459    95.189817    85.888203    86.140166    767.09459  0.045215994 
    6940    704278.01    299.80495   -519.26343     95.21172     85.87479    86.136661    519.26343  0.045456494 
    6960    704998.79    299.58462   -430.98591    95.233623    85.995001     86.08448    430.98591  0.045696995 
    6980    704947.42    299.88991   -128.02987    95.255525    86.012899    86.040508    128.02987  0.045937496 
    7000    705600.24    299.42503     -342.748    95.277428    86.101185    86.012103      342.748  0.046177996 
    7020    705838.56    301.09053    -465.4343    95.299331    86.069846      86.0527     465.4343  0.046418497 
    7040    705392.95    299.49993   -495.27281    95.321234    86.045228    86.003212    495.27281  0.046658998 
    7060    706168.64    298.95064    -622.2636    95.343137    86.109458      86.0138     622.2636  0.046899499 
    7080    706483.51    299.43945   -619.90851     95.36504    86.114865    86.026987    619.90851  0.047139999 
    7100    706026.67    299.30755   -480.93751    95.386943    86.047823    86.018585    480.93751    0.0473805 
    7120    705904.71    300.32649   -567.26215    95.408845    86.072049    85.959781    567.26215  0.047621001 
    7140    705902.74    301.14435   -434.34818    95.430748    86.071468    85.940391    434.34818  0.047861501 
    7160    706235.39    299.35047   -585.81895    95.452651    86.063159     85.96946    585.81895  0.048102002 
    7180     706049.6      300.224    67.761279    95.474554    86.045178    85.945083   -67.761279  0.048342503 
    7200    705908.43    298.69778   -616.82982    95.496457    86.010236    85.943091    616.82982  0.048583003 
    7220     705652.3    300.18471   -659.76887     95.51836    85.967942    85.934464    659.76887  0.048823504 
    7240     705772.5    299.70827   -555.97102    95.540263     85.95154    85.945796    555.97102  0.049064005 
    7260    706404.81    300.03394   -575.42093    95.562165    85.921663    86.032985    575.42093  0.049304505 
    7280    706809.13    301.13013   -726.90147    95.584068    85.905142    86.079053    726.90147  0.049545006 
    7300    706260.33    300.19134   -121.02895    95.605971    85.855959    86.041772    121.02895  0.049785507 
    7320    706555.46    299.59323     -144.941    95.627874     85.81491    86.099178      144.941  0.050026007 
    7340    706532.66    300.28673   -323.79662    95.649777    85.805933     86.08569    323.79662  0.050266508 
    7360    706736.69    299.85436   -675.94496     95.67168    85.859984    86.036639    675.94496  0.050507009 
    7380    706674.17    299.95952   -309.12338    95.693583     85.82925    86.040136    309.12338   0.05074751 
    7400    706713.02    300.93236   -631.31434    95.715485    85.819202    86.035248    631.31434   0.05098801 
    7420    706679.78    300.37981   -748.92567    95.737388     85.82889     86.00181    748.92567  0.051228511 
    7440    706870.44     300.5505   -447.82187    95.759291    85.803064    86.031223    447.82187  0.051469012 
    7460    706361.09    299.97338      85.7856    95.781194    85.706458    86.046453     -85.7856  0.051709512 
    7480    706680.58    300.00638   -32.873209    95.803097    85.679512    86.092759    32.873209  0.051950013 
    7500    707122.28    298.52269   -760.34139       95.825    85.663921    86.142554    760.34139  0.052190514 
    7520    706943.59    299.66581   -320.33926    95.846903    85.628675    86.136546    320.33926  0.052431014 
    7540    707719.92    297.77001   -923.83661    95.868805     85.67179     86.16805    923.83661  0.052671515 
    7560    707429.76    299.03437   -659.11214    95.890708    85.642911    86.142085    659.11214  0.052912016 
    7580    707226.84    299.78626   -501.40698    95.912611     85.61657    86.124199    501.40698  0.053152516 
    7600     707526.6    299.26947   -272.09773    95.934514    85.594661     86.16308    272.09773  0.053393017 
    7620    708466.44    298.29173   -190.72253    95.956417    85.606577    86.245834    190.72253  0.053633518 
    7640    708057.68    300.41864   -23.414735     95.97832    85.568374    86.214877    23.414735  0.053874018 
    7660    708354.36    301.09368   -327.09725    96.000223     85.56193    86.237818    327.09725  0.054114519 
    7680    709055.17    299.64469   -388.96599    96.022125    85.552789    86.312668    388.96599   0.05435502 
    7700    709377.87    299.18249   -984.24776    96.044028     85.56536    86.319573    984.24776  0.054595521 
    7720    708872.75    300.15764     -665.645    96.065931    85.524612     86.27953      665.645  0.054836021 
    7740    709312.25      299.313   -410.53313    96.087834    85.495216    86.343022    410.53313  0.055076522 
    7760    709398.59    299.80231   -404.93571    96.109737    85.515736    86.313136    404.93571  0.055317023 
    7780    709330.19    301.36912   -40.802393     96.13164    85.510657    86.290274    40.802393  0.055557523 
    7800    710281.67    300.58016   -585.94105    96.153543    85.573242     86.32316    585.94105  0.055798024 
    7820    709956.34    302.05912   -234.88327    96.175445    85.540547    86.296943    234.88327  0.056038525 
    7840    710659.44    300.82104   -393.52708    96.197348    85.580919    86.321999    393.52708  0.056279025 
    7860    710884.91    300.50899    -683.6964    96.219251    85.633307    86.276915     683.6964  0.056519526 
    7880    710496.32    300.63633   -801.29471    96.241154    85.644592    86.198769    801.29471  0.056760027 
    7900    710615.07    300.84075   -347.68562    96.263057    85.658555    86.179509    347.68562  0.057000527 
    7920    711307.94    299.57069   -453.34676     96.28496    85.708955      86.1932    453.34676  0.057241028 
    7940    710618.67    301.28636   -306.60852    96.306863     85.64763    86.151735    306.60852  0.057481529 
    7960    709957.86    300.67961   -406.62432    96.328765    85.618854    86.080973    406.62432   0.05772203 
    7980    709649.58    300.78158   -259.23158    96.350668    85.573345    86.069784    259.23158   0.05796253 
    8000    709619.69    299.78371   -553.32682    96.372571    85.531935    86.088257    553.32682  0.058203031 
    8020    710010.09    299.58468   -681.32696    96.394474    85.516855    86.131232    681.32696  0.058443532 
    8040    709753.11    300.38807   -496.03382    96.416377    85.439142    86.158795    496.03382  0.058684032 
    8060    709061.55    300.50189   -67.067087     96.43828    85.352455    86.142698    67.067087  0.058924533 
    8080    709473.98    300.04452   -263.58102    96.460183    85.411339    86.113821    263.58102  0.059165034 
    8100    709979.79    299.90239   -535.62647    96.482085    85.416071     86.15088    535.62647  0.059405534 
    8120    709541.19    300.52293   -340.39645    96.503988    85.403911    86.090374    340.39645  0.059646035 
    8140    709843.62    299.64544   -730.53146    96.525891    85.447298    86.063802    730.53146  0.059886536 
    8160    710553.76    299.80593   -1023.2353    96.547794    85.486954    86.090403    1023.2353  0.060127036 
    8180    709839.47    299.08009   -188.51782    96.569697     85.50108    85.970148    188.51782  0.060367537 
    8200    709723.83    300.06426   -274.87878      96.5916    85.485599    85.952215    274.87878  0.060608038 
    8220     710173.2    299.34893   -402.58089    96.613503    85.449451    86.023513    402.58089  0.060848538 
    8240    710751.96    299.37706   -206.62969    96.635405    85.488379     86.03491    206.62969  0.061089039 
    8260    710826.29    299.47861   -576.52181    96.657308    85.498135    86.014594    576.52181   0.06132954 
    8280    710607.11    299.73713   -312.21214    96.679211    85.451754    86.015253    312.21214  0.061570041 
    8300     710473.4    298.85605   -290.34514    96.701114    85.508892    85.922137    290.34514  0.061810541 
    8320    710517.95    301.58217   -533.12829    96.723017     85.49096    85.926084    533.12829  0.062051042 
    8340    710960.42    301.36927   -730.87351     96.74492    85.461574    85.989687    730.87351  0.062291543 
    8360    711117.75    300.72849   -448.23044    96.766823    85.507842     85.94272    448.23044  0.062532043 
    8380    710550.26    301.83961   -338.62689    96.788725    85.420579    85.942409    338.62689  0.062772544 
    8400    711182.44    300.37571   -415.31787    96.810628    85.409664      86.0104    415.31787  0.063013045 
    8420    711796.98    300.83318   -390.63565    96.832531    85.468219    86.006287    390.63565  0.063253545 
    8440    711934.37    301.11165   -513.19093    96.854434    85.485171    85.986381    513.19093  0.063494046 
    8460    712418.13    299.61831   -571.95444    96.876337    85.536553    85.973678    571.95444  0.063734547 
    8480    713215.08    301.49475   -670.08966     96.89824    85.624087    85.962428    670.08966  0.063975047 
    8500    713079.41     301.2073   -400.60053    96.920143    85.583297    85.967607    400.60053  0.064215548 
    8520    713683.04    300.24486   -375.89838    96.942045    85.607656    85.996463    375.89838  0.064456049 
    8540    713542.42    299.76134   -164.10766    96.963948    85.586523    85.981323    164.10766  0.064696549 
    8560    712981.79    299.48769   -385.00946    96.985851    85.495684    85.985627    385.00946   0.06493705 
    8580    713654.13    299.32629   -539.98037    97.007754    85.506636    86.036257    539.98037  0.065177551 
    8600    713722.78    298.46323   -613.02618    97.029657    85.526087    86.005547    613.02618  0.065418052 
    8620    712410.94    298.60138   -455.52838     97.05156    85.442209    85.912349    455.52838  0.065658552 
    8640    712615.16    298.97596   -738.07959    97.073463    85.465234    85.894439    738.07959  0.065899053 
    8660    712619.03    299.71008   -848.61204    97.095365    85.469887    85.870854    848.61204  0.066139554 
    8680    711602.25    300.13233   -298.06001    97.117268     85.40431     85.79482    298.06001  0.066380054 
    8700    711870.88    299.70277    126.32643    97.139171    85.429214     85.78284   -126.32643  0.066620555 
    8720    712248.58    300.21599    -112.1677    97.161074    85.481193    85.756828     112.1677  0.066861056 
    8740    712073.01    299.52307   -386.38449    97.182977    85.472155     85.72543    386.38449  0.067101556 
    8760    712749.04    299.62615   -560.34378     97.20488     85.52222    85.737261    560.34378  0.067342057 
    8780    712452.59    298.12282   -844.99327    97.226783    85.483275    85.721331    844.99327  0.067582558 
    8800    712260.92    299.76514   -419.51866    97.248685    85.423257    85.739165    419.51866  0.067823058 
    8820    713446.17    300.30766   -378.29614    97.270588    85.454596    85.831015    378.29614  0.068063559 
    8840    713143.48    301.19247   -268.92287    97.292491    85.414874    85.815174    268.92287   0.06830406 
    8860    712902.91    300.50032   -475.81861    97.314394    85.393392    85.788493    475.81861  0.068544561 
    8880    712186.04    301.07329     91.74232    97.336297    85.325326    85.751293    -91.74232  0.068785061 
    8900       712006    301.19019    -600.7541      97.3582    85.343249    85.692328     600.7541  0.069025562 
    8920    712083.45     300.8125   -724.30789    97.380103    85.371561    85.653959    724.30789  0.069266063 
    8940    711673.24    301.15681   -556.55551    97.402005    85.333939    85.623099    556.55551  0.069506563 
    8960    711022.73    299.75181   -279.55991    97.423908    85.307409      85.5522    279.55991  0.069747064 
    8980     711499.7    300.19782   -443.50338    97.445811    85.341224    85.556435    443.50338  0.069987565 
    9000    711898.07    302.02936   -285.80265    97.467714    85.361556    85.564715    285.80265  0.070228065 
    9020     712252.9     299.8708   -343.96691    97.489617    85.359552     85.59014    343.96691  0.070468566 
    9040     712347.3    300.61051   -414.87687     97.51152    85.340736    85.601125    414.87687  0.070709067 
    9060    712313.92    299.85081   -411.09408    97.533423     85.35895    85.559631    411.09408  0.070949567 
    9080    713108.28    299.50697   -490.67742    97.555325     85.37915    85.615554    490.67742  0.071190068 
    9100    713664.95    298.92366   -403.87413    97.577228    85.409364     85.63285    403.87413  0.071430569 
    9120    713505.54    299.45393   -477.78896    97.599131    85.432168    85.571663    477.78896  0.071671069 
    9140    714311.49    299.35866   -482.66441    97.621034    85.462323    85.618879    482.66441   0.07191157 
    9160    714269.65    299.17181    -296.9312    97.642937     85.42334    85.633721     296.9312  0.072152071 
    9180    714265.32     300.7409   -444.45994     97.66484    85.426115    85.611216    444.45994  0.072392572 
    9200    714459.53    299.69891   -608.33557    97.686743    85.410782    85.630663    608.33557  0.072633072 
    9220    714143.24    299.14787   -173.16084    97.708645    85.363699    85.620766    173.16084  0.072873573 
    9240    714783.71    300.96642   -568.37355    97.730548    85.352208    85.689883    568.37355  0.073114074 
    9260    715161.06    298.31756   -904.46524    97.752451    85.355799    85.712303    904.46524  0.073354574 
    9280    714294.94    300.49067   -341.81522    97.774354    85.338497    85.606675    341.81522  0.073595075 
    9300    714434.28    300.08066   -433.08753    97.796257    85.353713    85.588937    433.08753  0.073835576 
    9320    714120.22    300.27641   -139.51788     97.81816    85.285076    85.600992    139.51788  0.074076076 
    9340    713622.98    300.15118    -509.2315    97.840063     85.22193    85.585608     509.2315  0.074316577 
    9360    713975.69    301.35887   -683.21433    97.861965    85.226759    85.603892    683.21433  0.074557078 
    9380    713592.09    300.58457   -629.86391    97.883868    85.166129    85.599651    629.86391  0.074797578 
    9400     712952.1    301.66062   -196.24001    97.905771    85.132524    85.537499    196.24001  0.075038079 
    9420    713072.87    301.58977   -176.47604    97.927674     85.10483    85.560687    176.47604   0.07527858 
    9440    713283.39    301.30094   -438.79689    97.949577     85.16896    85.502379    438.79689   0.07551908 
    9460    712997.05    301.20935   -187.36215     97.97148    85.143466    85.474533    187.36215  0.075759581 
    9480    713843.41    302.01982   -388.35539    97.993383    85.171587     85.52862    388.35539  0.076000082 
    9500    714677.26    300.26593   -501.51891    98.015285    85.191404    85.589478    501.51891  0.076240583 
    9520    714654.89    300.64457   -593.33957    98.037188    85.208399    85.550611    593.33957  0.076481083 
    9540    714232.34    299.73511   -418.27866    98.059091    85.219878    85.469416    418.27866  0.076721584 
    9560    714290.23    300.49254   -495.57062    98.080994    85.209136    85.468029    495.57062  0.076962085 
    9580    714834.23    299.31482   -214.62884    98.102897     85.21536    85.507779    214.62884  0.077202585 
    9600    714952.42    299.59383    -267.3615      98.1248    85.167137     85.55124     267.3615  0.077443086 
    9620    714356.41    299.84035   -474.98121    98.146703    85.103578    85.524671    474.98121  0.077683587 
    9640    714312.95    298.64869   -571.61745    98.168605    85.071906    85.532219    571.61745  0.077924087 
    9660    714550.79    300.45198   -332.70428    98.190508    85.074224    85.539282    332.70428  0.078164588 
    9680    714144.09    300.21042   -287.87382    98.212411    85.058895    85.486933    287.87382  0.078405089 
    9700    714095.66    299.71399   -542.51939    98.234314    85.061976    85.458981    542.51939  0.078645589 
    9720    714616.31     300.4364   -712.57717    98.256217    85.022464     85.54196    712.57717   0.07888609 
    9740    714049.76    299.06467   -622.32038     98.27812    84.944643    85.533382    622.32038  0.079126591 
    9760    713722.29    299.60972    67.278874    98.300023    84.917487     85.50244   -67.278874  0.079367092 
    9780     714529.7    301.27204   -346.28211    98.321925    84.924107    85.573426    346.28211  0.079607592 
    9800    715339.23    300.42475   -714.66704    98.343828    85.008946    85.565817    714.66704  0.079848093 
    9820    715974.27    299.12149   -658.59075    98.365731     85.04249    85.588935    658.59075  0.080088594 
    9840    716253.39    300.01373   -297.89293    98.387634    85.022916    85.622948    297.89293  0.080329094 
    9860    716492.42    299.63957   -275.98381    98.409537    85.016483    85.638939    275.98381  0.080569595 
    9880     717157.1    300.95987   -582.52633     98.43144    85.078562    85.636779    582.52633  0.080810096 
    9900     716521.8    301.01262   -512.97536    98.453343    85.074318    85.546149    512.97536  0.081050596 
    9920    716708.94    299.88717   -514.10565    98.475245    85.124924    85.498601    514.10565  0.081291097 
    9940    717054.22    301.23926   -592.74389    98.497148    85.168117    85.477398    592.74389  0.081531598 
    9960    716265.36    301.77803   -193.40552    98.519051    85.119555     85.41308    193.40552  0.081772098 
    9980    716079.91    301.71791   -373.22853    98.540954    85.120283    85.371255    373.22853  0.082012599 
   10000    716819.27    301.17465   -758.49188    98.562857    85.116631    85.444077    758.49188    0.0822531 
   10020    716588.47    300.49265   -387.50229     98.58476    85.105763    85.408494    387.50229    0.0824936 
   10040    716961.87    300.43784     -549.902    98.606663    85.151532    85.388097      549.902  0.082734101 
   10060    716845.05    300.77809   -434.16031    98.628565    85.186243    85.320445    434.16031  0.082974602 
   10080    716885.51    301.24732    -516.2423    98.650468     85.16727    85.325319     516.2423  0.083215103 
   10100    717006.85    300.59606   -22.743039    98.672371    85.135827     85.35233    22.743039  0.083455603 
   10120     716890.1      299.935   -318.81397    98.694274    85.100833    85.354577    318.81397  0.083696104 
   10140    716362.75    299.85975   -234.22082    98.716177    85.118859    85.254806    234.22082  0.083936605 
   10160    716615.24    300.68653   -427.63743     98.73808    85.142732    85.242029    427.63743  0.084177105 
   10180    716863.74    299.48508   -331.53204    98.759983    85.176483    85.218896    331.53204  0.084417606 
   10200    717673.37    300.91387   -822.21017    98.781885    85.232822    85.239845    822.21017  0.084658107 
   10220    717511.25    300.13089   -459.38133    98.803788    85.192827    85.241697    459.38133  0.084898607 
   10240    717789.13    300.21795   -406.04594    98.825691    85.222559    85.226067    406.04594  0.085139108 
   10260    718091.96    299.81424   -476.37893    98.847594    85.228238    85.237451    476.37893  0.085379609 
   10280    716807.14    299.76769    151.03255    98.869497    85.065988    85.228343   -151.03255  0.085620109 
   10300    716122.05    300.64209    77.506218      98.8914    85.023085    85.170984   -77.506218   0.08586061 
   10320    717223.44    299.87783   -1078.2848    98.913303    85.113764    85.192228    1078.2848  0.086101111 
   10340    716932.52    299.14921   -890.24033    98.935205    85.084098    85.168505    890.24033  0.086341611 
   10360     716555.9    300.22005   -266.35576    98.957108    85.110953     85.07807    266.35576  0.086582112 
   10380    717336.41    299.68821   -354.41104    98.979011    85.144582    85.118262    354.41104  0.086822613 
   10400    717404.44    300.09682   -247.50859    99.000914    85.165884    85.086214    247.50859  0.087063114 
   10420    717439.49    300.73675   -322.30713    99.022817    85.217637    85.019885    322.30713  0.087303614 
   10440    717627.02    300.48464   -239.08992     99.04472    85.215385    85.025549    239.08992  0.087544115 
   10460    717488.45     299.2019   -512.63602    99.066623    85.200664     85.00502    512.63602  0.087784616 
   10480    717378.56    299.70809   -860.39596    99.088525    85.257569    84.916499    860.39596  0.088025116 
   10500    717419.31    301.34265   -340.01266    99.110428    85.268171    84.891999    340.01266  0.088265617 
   10520    718062.03    299.21456   -663.01712    99.132331    85.292441    84.925107    663.01712  0.088506118 
   10540    717949.15    300.24286   -567.28936    99.154234    85.260436    84.924866    567.28936  0.088746618 
   10560    717561.14    301.69981   -2.2717434    99.176137    85.231481    84.889053    2.2717434  0.088987119 
   10580    718896.84     301.2019   -143.40325     99.19804    85.266306    84.993563    143.40325   0.08922762 
   10600    719636.26    300.61327   -604.74017    99.219943    85.298404    85.030193    604.74017   0.08946812 
   10620     718587.1    299.48002   -156.00525    99.241845    85.223975    84.961623    156.00525  0.089708621 
   10640    719102.01    299.67693   -725.29564    99.263748    85.231508    84.996229    725.29564  0.089949122 
   10660    719719.48    300.92755   -1280.2401    99.285651    85.261574    85.020455    1280.2401  0.090189623 
   10680    718439.61    299.70274   -353.28565    99.307554    85.171683    84.940098    353.28565  0.090430123 
   10700    718202.65    299.66259    166.86279    99.329457      85.0578    85.007022   -166.86279  0.090670624 
   10720     718367.1     299.9318    14.431656     99.35136    85.052132    85.013405   -14.431656  0.090911125 
   10740    718664.21     299.8066   -288.29875    99.373263    85.123819    84.958213    288.29875  0.091151625 
   10760    719121.46    299.81425   -616.73889    99.395165    85.159816    84.957608    616.73889  0.091392126 
   10780    719404.39    298.70723   -918.13805    99.417068     85.18077    84.951406    918.13805  0.091632627 
   10800    719353.53    298.60571   -499.68568    99.438971    85.175973    84.931473    499.68568  0.091873127 
   10820    719943.86    298.79593   -536.52285    99.460874    85.115905    85.042427    536.52285  0.092113628 
   10840    719540.83    298.93084   -80.192558    99.482777    85.080292    85.011676    80.192558  0.092354129 
   10860    719820.52    299.28848   -536.11651     99.50468    85.079263    85.027028    536.11651  0.092594629 
   10880     720260.8    297.61403   -432.60724    99.526583    85.072689    85.066885    432.60724   0.09283513 
   10900    720268.45    300.07839   -476.37425    99.548485    85.052873    85.068886    476.37425  0.093075631 
   10920    720142.54    299.78095   -379.70834    99.570388    85.011209    85.076982    379.70834  0.093316131 
   10940    719359.55    298.95671   -382.81863    99.592291     84.95592    85.021085    382.81863  0.093556632 
   10960    719933.75    300.44574   -602.45473    99.614194    85.006507    85.019615    602.45473  0.093797133 
   10980    720384.19    300.04141   -503.21433    99.636097    85.026128    85.034481    503.21433  0.094037634 
   11000    720296.95    300.72735   -432.56551       99.658    84.986658    85.044974    432.56551  0.094278134 
   11020    719821.95    299.38066   -432.82521    99.679903    84.934631    85.022266    432.82521  0.094518635 
   11040    719770.35    300.01705   -331.84771    99.701805    84.951322    84.980794    331.84771  0.094759136 
   11060    719994.07    299.61431   -400.32758    99.723708    84.999299    84.940567    400.32758  0.094999636 
   11080    720551.53    300.90769   -258.81543    99.745611    84.951162    85.035825    258.81543  0.095240137 
   11100    720966.67    301.11622    -368.8578    99.767514    84.968516    85.048763     368.8578  0.095480638 
   11120    721504.35    300.32143   -455.24473    99.789417     84.98501    85.076995    455.24473  0.095721138 
   11140    722308.15    300.81855   -527.69884     99.81132     84.98986    85.148227    527.69884  0.095961639 
   11160    722507.08    300.13855   -636.21855    99.833223    85.020084    85.122719    636.21855   0.09620214 
   11180    721683.38    300.16146   -111.51191    99.855125    84.930033    85.097156    111.51191   0.09644264 
   11200    721445.86    299.64066   -453.15542    99.877028    84.900001     85.08058    453.15542  0.096683141 
   11220    721411.92    299.74752   -514.65566    99.898931    84.940537    85.017332    514.65566  0.096923642 
   11240     721166.2    298.38499   -427.26115    99.920834    84.877789    85.032561    427.26115  0.097164142 
   11260    720897.01     300.5756   -214.12333    99.942737    84.844199    85.015837    214.12333  0.097404643 
   11280     721531.2    300.92147    -674.4987     99.96464     84.95551    84.960519     674.4987  0.097645144 
   11300     721378.1    300.65736   -612.43647    99.986543    84.960611    84.918786    612.43647  0.097885645 
   11320    721343.89    299.61373   -602.83635    100.00845    84.940976    84.915786    602.83635  0.098126145 
   11340    721423.39    300.70869   -242.90853    100.03035    84.907445     84.94008    242.90853  0.098366646 
   11360    721746.96    300.20509   -528.34828    100.05225    84.852892    85.014195    528.34828  0.098607147 
   11380    721744.15    299.20563   -227.08611    100.07415    84.863846    84.984287    227.08611  0.098847647 
   11400    722000.71    299.49123   -680.02307    100.09606    84.917638    84.942053    680.02307  0.099088148 
   11420    721702.48    298.81764   -411.35633    100.11796    84.873232    84.932806    411.35633  0.099328649 
   11440    722122.38    300.06117    -567.6376    100.13986    84.928071    84.908771     567.6376  0.099569149 
   11460    722756.73    297.81807   -436.72854    100.16177    84.989636    84.903228    436.72854   0.09980965 
   11480    723145.93    299.42864   -645.16795    100.18367    85.027012    84.893043    645.16795   0.10005015 
   11500     722738.9    298.25016   -384.65945    100.20557    84.969689     84.88394    384.65945   0.10029065 
   11520       723016    297.38537   -352.63166    100.22747    84.976083    84.891541    352.63166   0.10053115 
   11540    723660.14    297.59405   -541.37479    100.24938    84.965138     84.95955    541.37479   0.10077165 
   11560     723558.8    298.81042   -542.78479    100.27128    84.973205    84.921034    542.78479   0.10101215 
   11580    723459.72    297.74341   -280.98152    100.29318    84.986473    84.877608    280.98152   0.10125265 
   11600    723953.25    299.58804   -401.46325    100.31509    84.985524    84.917914    401.46325   0.10149315 
   11620     723394.8    299.66921   -284.43773    100.33699    84.915648    84.903696    284.43773   0.10173366 
   11640    723773.23    298.88174   -499.93354    100.35889    84.940474    84.904749    499.93354   0.10197416 
   11660    724189.89    299.73727   -367.17026    100.38079     84.98809    84.887504    367.17026   0.10221466 
   11680    724632.38    299.20689    -597.5929     100.4027    84.969538    84.939383     597.5929   0.10245516 
   11700    725197.51     300.2204   -497.70188     100.4246    84.911132    85.045545    497.70188   0.10269566 
   11720    725762.48    299.62208   -322.08707     100.4465    84.900067     85.10433    322.08707   0.10293616 
   11740    725650.19     299.8932   -489.68691    100.46841    84.886906    85.085802    489.68691   0.10317666 
   11760    726069.01    299.96169   -378.60948    100.49031    84.904604    85.098613    378.60948   0.10341716 
   11780    726962.33    300.65094   -495.60194    100.51221    84.966395    85.122798    495.60194   0.10365766 
   11800    726788.15    300.12089   -334.02269    100.53411    84.916233    85.134123    334.02269   0.10389816 
   11820     727051.1    301.40008   -574.71632    100.55602     84.97008    85.092415    574.71632   0.10413866 
   11840     726861.9    299.88901   -405.39812    100.57792    84.982109    85.039707    405.39812   0.10437916 
   11860    726819.94    300.95012   -177.91209    100.59982    84.981505    85.016887    177.91209   0.10461966 
   11880    727100.72    300.69477   -664.18706    100.62173    84.993478    85.019239    664.18706   0.10486016 
   11900    726908.05    301.22206   -404.06761    100.64363    84.988767    84.982923    404.06761   0.10510067 
   11920     726400.1    300.78711   -533.26446    100.66553    84.933503    84.960307    533.26446   0.10534117 
   11940    726583.27    299.89842   -552.26382    100.68743    84.947945    84.948799    552.26382   0.10558167 
   11960    726751.98    300.18941   -588.78354    100.70934    84.930736    84.967257    588.78354   0.10582217 
   11980    726568.83     299.7745   -374.56055    100.73124    84.871081    84.987069    374.56055   0.10606267 
   12000     726600.5    300.67707   -278.72978    100.75314    84.910008    84.933341    278.72978   0.10630317 
   12020    726792.58    299.77746   -445.38471    100.77505    84.914517    84.932818    445.38471   0.10654367 
   12040    726495.08    300.50471   -135.18932    100.79695    84.952144     84.84201    135.18932   0.10678417 
   12060    726572.38    300.26593   -496.07947    100.81885    84.951999    84.832749    496.07947   0.10702467 
   12080    725752.27    299.81745    -395.7076    100.84075    84.948495    84.722083     395.7076   0.10726517 
   12100    725221.12    299.62187   -258.27639    100.86266    84.965391    84.624863    258.27639   0.10750567 
   12120    725536.52    300.63063    -426.5949    100.88456    84.962928     84.64574     426.5949   0.10774617 
   12140     725754.7    299.70191   -570.71706    100.90646    84.941623    84.674048    570.71706   0.10798667 
   12160    725627.99    299.78652   -243.29882    100.92837    84.944793    84.637734    243.29882   0.10822717 
   12180    726144.92    299.71671   -410.36775    100.95027    84.952357    84.672112    410.36775   0.10846767 
   12200     726337.1    299.62744   -604.66274    100.97217    84.958773    84.669755    604.66274   0.10870818 
   12220    726717.93    299.30638    -617.1527    100.99407    84.971389    84.683201     617.1527   0.10894868 
   12240    727012.48    298.93017   -298.75216    101.01598    85.010727    84.659962    298.75216   0.10918918 
   12260    727772.41    299.44482   -444.12733    101.03788    85.055919    84.685065    444.12733   0.10942968 
   12280    728175.89    299.94991   -445.86669    101.05978    85.012282    84.757134    445.86669   0.10967018 
   12300    727941.91    299.55371    -479.7119    101.08169     84.97209    84.751608     479.7119   0.10991068 
   12320    727845.64    298.92304   -364.05446    101.10359    84.954679    84.739405    364.05446   0.11015118 
   12340    728010.68    300.03725   -290.34618    101.12549     84.98416    84.710865    290.34618   0.11039168 
   12360    728007.25    300.56076   -205.87411    101.14739    85.048294    84.628258    205.87411   0.11063218 
   12380     729159.9    299.83227   -624.42138     101.1693    85.135958    84.656638    624.42138   0.11087268 
   12400    728563.78    301.17644   -503.12294     101.1912    85.091352    84.613451    503.12294   0.11111318 
   12420    727901.26    301.41054   -432.91421     101.2131    85.083027    84.526483    432.91421   0.11135368 
   12440    728158.81    300.62033    -370.4101    101.23501    85.070067    84.550976     370.4101   0.11159418 
   12460     727860.6    301.27195   -264.42312    101.25691    85.043086    84.524874    264.42312   0.11183468 
   12480    727640.62    300.14423   -610.01761    101.27881    85.062237    84.462036    610.01761   0.11207519 
   12500    728241.37    300.95614   -365.07886    101.30071    85.094906    84.481045    365.07886   0.11231569 
   12520       728278    300.92268   -349.41319    101.32262    85.059782    84.501911    349.41319   0.11255619 
   12540    728459.62    299.66192   -427.19681    101.34452    85.049978    84.514458    427.19681   0.11279669 
   12560    728041.38    300.04944   -410.72324    101.36642    85.027643    84.469865    410.72324   0.11303719 
   12580    726995.87     300.3208   -321.47098    101.38833    85.006527    84.351289    321.47098   0.11327769 
   12600    727726.66    301.85782   -543.27555    101.41023    85.015741    84.408694    543.27555   0.11351819 
   12620    728541.84    299.15539   -531.61608    101.43213    85.053038    84.447951    531.61608   0.11375869 
   12640    728415.69    299.72807   -575.07272    101.45403    85.051177    84.416947    575.07272   0.11399919 
   12660    728056.03    299.99107   -184.24182    101.47594    85.031299    84.376774    184.24182   0.11423969 
   12680    729314.33    299.78724    -502.9394    101.49784    85.132582    84.403828     502.9394   0.11448019 
   12700       729624    299.65194   -684.18143    101.51974    85.080909     84.47272    684.18143   0.11472069 
   12720    729366.27    299.70674   -541.31761    101.54165    84.989505    84.515463    541.31761   0.11496119 
   12740    729265.71     299.0432   -440.09339    101.56355    84.998897    84.476252    440.09339   0.11520169 
   12760    729431.24    299.61962   -263.63687    101.58545    84.929819    84.545919    263.63687   0.11544219 
   12780    729363.69    298.55462   -176.84607    101.60735    84.853384       84.596    176.84607    0.1156827 
   12800    730172.07     299.9766   -562.28099    101.62926    84.919404    84.605681    562.28099    0.1159232 
   12820    730438.08    298.96073    -305.9289    101.65116     84.91969    84.617982     305.9289    0.1161637 
   12840    730937.39    298.74003   -353.78477    101.67306    84.947644    84.629726    353.78477    0.1164042 
   12860    731464.11    299.50421   -643.21275    101.69497    85.006172    84.614172    643.21275    0.1166447 
   12880    731087.37    299.24589   -623.87983    101.71687    84.921068    84.637115    623.87983    0.1168852 
   12900    731298.46    298.44645   -426.72392    101.73877      84.9357    84.628744    426.72392    0.1171257 
   12920    731901.92    298.49436   -222.01728    101.76067    85.001493    84.614805    222.01728    0.1173662 
   12940    731664.23    298.41077    -224.8535    101.78258    84.989863    84.580695     224.8535    0.1176067 
   12960    731022.41    298.12494   -466.75546    101.80448    84.964149     84.51389    466.75546    0.1178472 
   12980    731132.53    298.97036   -481.46903    101.82638     84.96133    84.511243    481.46903    0.1180877 
   13000    732078.57    299.29735   -770.31332    101.84829    84.952839    84.610853    770.31332    0.1183282 
   13020    731960.69    298.88329   -518.46647    101.87019     84.94941    84.582455    518.46647    0.1185687 
   13040    732060.99    300.03239   -71.837213    101.89209    84.923171    84.601991    71.837213    0.1188092 
[...]
   76740    1069541.6    299.28592   -395.20511    171.65269    78.567977    79.305166    395.20511    0.8848039 
   76760    1069119.8    299.44979    126.21489    171.67459    78.566309    79.265461   -126.21489    0.8850444 
   76780    1070873.6    299.43803     219.7606     171.6965    78.598638    79.352709    -219.7606    0.8852849 
   76800    1071321.8    301.46652   -16.869833     171.7184    78.637386    79.336681    16.869833    0.8855254 
   76820    1070875.4    299.21877    13.254122     171.7403    78.657127    79.273612   -13.254122    0.8857659 
   76840    1071356.5     300.3904   -341.00153    171.76221     78.65927    79.296952    341.00153    0.8860064 
   76860    1070662.1    299.07096   -150.53729    171.78411    78.622255    79.272755    150.53729    0.8862469 
   76880    1071119.3    300.17507   -213.40022    171.80601    78.573668    79.345532    213.40022    0.8864874 
   76900    1071615.4    300.42471   -242.17953    171.82791    78.554514    79.391511    242.17953    0.8867279 
   76920    1070512.8    300.37375     182.8096    171.84982    78.514397    79.340239    -182.8096    0.8869684 
   76940    1070372.1    298.97655     194.9048    171.87172     78.49095    79.343396    -194.9048   0.88720891 
   76960    1070780.3     301.2011   -262.80557    171.89362    78.466581    79.388183    262.80557   0.88744941 
   76980    1069752.5    300.03398   -37.712808    171.91553    78.446362    79.322319    37.712808   0.88768991 
   77000    1070317.6    299.87164   -257.38126    171.93743    78.430672    79.369985    257.38126   0.88793041 
   77020      1070750    300.51019   -149.05081    171.95933    78.392878    79.430212    149.05081   0.88817091 
   77040    1071396.6    301.28052    7.0861709    171.98123    78.443502    79.416775   -7.0861709   0.88841141 
   77060      1071990    300.45081    -207.6703    172.00314    78.474105    79.419654     207.6703   0.88865191 
   77080    1071945.7     301.4559      6.22833    172.02504    78.451399    79.429241     -6.22833   0.88889241 
   77100    1072501.5    300.82042   -94.083339    172.04694    78.492057    79.419153    94.083339   0.88913291 
   77120    1072743.9    302.35524    78.294436    172.06885    78.533694    79.384882   -78.294436   0.88937341 
   77140    1072974.5    300.16699   -6.7011151    172.09075     78.51237    79.413403    6.7011151   0.88961391 
   77160    1072505.9    301.54118   -223.78826    172.11265    78.522351    79.358531    223.78826   0.88985441 
   77180    1072500.6    300.25484   -186.76904    172.13455    78.568645    79.301287    186.76904   0.89009491 
   77200    1072885.7    300.90874   -63.439095    172.15646    78.568441    79.319873    63.439095   0.89033541 
   77220    1072950.8    300.45408    -22.57519    172.17836    78.608438    79.274239     22.57519   0.89057591 
   77240    1073186.5    300.83558     125.0009    172.20026    78.650314    79.239354    -125.0009   0.89081642 
   77260    1073791.4    299.99228   -84.439162    172.22217    78.704723    79.219132    84.439162   0.89105692 
   77280    1074560.4    301.46427   -233.80476    172.24407    78.735517    79.234783    233.80476   0.89129742 
   77300    1074701.5    299.79946   -42.490913    172.26597    78.763273    79.207189    42.490913   0.89153792 
   77320    1074505.3    299.72551    -34.06338    172.28787    78.790642    79.155155     34.06338   0.89177842 
   77340      1074640    299.43709   -168.40153    172.30978    78.809586     79.13599    168.40153   0.89201892 
   77360    1074846.5    299.90482   -157.79061    172.33168     78.81882    79.131866    157.79061   0.89225942 
   77380    1075124.5    299.50039   -187.10808    172.35358    78.841987    79.119017    187.10808   0.89249992 
   77400      1074433    299.50361   -22.773219    172.37549    78.775059    79.125248    22.773219   0.89274042 
   77420    1074198.1    300.49876   -15.419733    172.39739    78.763617    79.109389    15.419733   0.89298092 
   77440    1073859.2    299.88042   -263.61883    172.41929    78.758315    79.079707    263.61883   0.89322142 
   77460    1073199.1    299.34485   -20.273667    172.44119    78.698767    79.080852    20.273667   0.89346192 
   77480    1074381.6    299.93839   -431.36824     172.4631    78.740644    79.115838    431.36824   0.89370242 
   77500    1074844.4    300.27695   -133.92366      172.485    78.773437    79.106919    133.92366   0.89394292 
   77520    1075773.4    298.93074    27.535896     172.5069    78.776678    79.161982   -27.535896   0.89418343 
   77540    1076444.2    299.62006   -18.336896    172.52881    78.798333    79.179522    18.336896   0.89442393 
   77560    1076948.4    300.23146    54.907654    172.55071    78.761501    79.243596   -54.907654   0.89466443 
   77580    1078388.4    299.65419   -279.23913    172.57261     78.78402    79.316802    279.23913   0.89490493 
   77600    1079937.7     299.6742     -262.201    172.59451    78.809337    79.395161      262.201   0.89514543 
   77620    1079757.5     300.1764    -88.55605    172.61642     78.81599    79.365139     88.55605   0.89538593 
   77640    1078756.8    300.19905   -30.631928    172.63832    78.741317     79.35671    30.631928   0.89562643 
   77660      1079524    300.90125   -282.06106    172.66022    78.724077    79.420464    282.06106   0.89586693 
   77680    1079107.3    300.69119    -11.65352    172.68213    78.685967    79.418188     11.65352   0.89610743 
   77700    1077932.9    302.24691    4.5641967    172.70403    78.656789    79.351114   -4.5641967   0.89634793 
   77720    1078265.8    300.89109   -59.638334    172.72593    78.636265    79.386275    59.638334   0.89658843 
   77740    1078531.7    302.43309   -279.48434    172.74783    78.674644    79.357052    279.48434   0.89682893 
   77760    1077200.4    303.04725    21.389015    172.76974      78.6531    79.270754   -21.389015   0.89706943 
   77780    1077498.5    301.24759   -36.681541    172.79164    78.592268    79.344006    36.681541   0.89730993 
   77800    1077448.2    300.53811   -5.0253185    172.81354     78.63018    79.291996    5.0253185   0.89755043 
   77820    1076292.5      300.942     147.6976    172.83545    78.610953    79.216282    -147.6976   0.89779094 
   77840    1076692.2    300.23931   -57.284266    172.85735    78.545113    79.302078    57.284266   0.89803144 
   77860    1077881.6    301.41756   -370.97888    172.87925    78.548994    79.375701    370.97888   0.89827194 
   77880    1076749.3    300.11449    5.5289933    172.90115    78.498614    79.333155   -5.5289933   0.89851244 
   77900    1077683.7    300.24565   -85.965802    172.92306    78.489826    79.400832    85.965802   0.89875294 
   77920    1077824.4     300.5547   -8.8674631    172.94496    78.521364    79.369251    8.8674631   0.89899344 
   77940    1077971.5    301.26351   -9.8933517    172.96686    78.539747    79.351453    9.8933517   0.89923394 
   77960    1078722.7    300.32915   -98.894396    172.98877    78.524255    79.412357    98.894396   0.89947444 
   77980    1079058.8    300.56496   -100.06227    173.01067    78.558497    79.392425    100.06227   0.89971494 
   78000    1078827.9    299.87587    35.694115    173.03257    78.553676    79.370261   -35.694115   0.89995544 
   78020    1079782.2    300.13108    26.628306    173.05447    78.571918    79.411972   -26.628306   0.90019594 
   78040    1080571.8    300.23411   -419.96403    173.07638    78.540581    79.491688    419.96403   0.90043644 
   78060    1079354.2    299.31589   -60.126582    173.09828    78.507414    79.425611    60.126582   0.90067694 
   78080    1080049.2    300.77276   -2.0616472    173.12018     78.55416    79.419407    2.0616472   0.90091744 
   78100    1080331.2    298.60883    6.1216649    173.14209    78.548676    79.435639   -6.1216649   0.90115795 
   78120    1081053.8     299.0749   -100.21633    173.16399    78.537401    79.490133    100.21633   0.90139845 
   78140    1081246.9    299.76596   -162.46223    173.18589    78.577983    79.453217    162.46223   0.90163895 
   78160    1081525.3     298.7522   -138.89147    173.20779    78.585028    79.456499    138.89147   0.90187945 
   78180    1081558.7    299.82907   -103.48807     173.2297    78.536645    79.497857    103.48807   0.90211995 
   78200    1080892.1    299.14575   -13.456688     173.2516    78.519598     79.45606    13.456688   0.90236045 
   78220    1080985.2    299.20804    80.667933     173.2735    78.559504      79.4125   -80.667933   0.90260095 
   78240    1081492.4    299.98259    13.169356    173.29541    78.602074    79.396693   -13.169356   0.90284145 
   78260    1081311.6    299.40593   -136.92608    173.31731    78.615828    79.359503    136.92608   0.90308195 
   78280    1081488.1    301.34192   -52.129761    173.33921    78.608046    79.370284    52.129761   0.90332245 
   78300    1081733.9    299.99446   -140.40502    173.36111    78.540262    79.446802    140.40502   0.90356295 
   78320    1080995.2    300.75996   -12.130269    173.38302    78.454402    79.469392    12.130269   0.90380345 
   78340    1080410.2    301.78149   -83.527332    173.40492    78.400798    79.470654    83.527332   0.90404395 
   78360    1081345.3    302.28748   -140.89394    173.42682      78.4254    79.504439    140.89394   0.90428445 
   78380      1081793    301.97233   -99.306947    173.44873    78.450125     79.50225    99.306947   0.90452495 
   78400    1081431.4    299.99242    61.294537    173.47063    78.391149    79.525422   -61.294537   0.90476546 
   78420    1081290.7    301.40569    78.632141    173.49253     78.38108     79.51525   -78.632141   0.90500596 
   78440    1081821.4    300.46559   -239.46445    173.51443    78.403645    79.521342    239.46445   0.90524646 
   78460    1081734.4    301.37796   -228.97019    173.53634    78.359038    79.550171    228.97019   0.90548696 
   78480    1081925.8    300.69415    -117.8038    173.55824    78.378946    79.533999     117.8038   0.90572746 
   78500    1083052.4    301.42263   -80.792737    173.58014    78.477291    79.507011    80.792737   0.90596796 
   78520    1083840.2     300.6606   -27.383514    173.60205    78.501726    79.530044    27.383514   0.90620846 
   78540    1084788.1    299.64878    15.085366    173.62395     78.58236    79.507889   -15.085366   0.90644896 
   78560    1085374.7    299.96409   -238.43694    173.64585    78.675895    79.446283    238.43694   0.90668946 
   78580    1085273.7    300.74453   -156.68784    173.66775    78.600043    79.505523    156.68784   0.90692996 
   78600    1086589.2    298.51221   -1.7140528    173.68966    78.647608     79.54372    1.7140528   0.90717046 
   78620      1087589    300.22556    20.047948    173.71156    78.684248    79.569805   -20.047948   0.90741096 
   78640    1087989.8    299.77887   -176.51948    173.73346    78.690625     79.58264    176.51948   0.90765146 
   78660    1088212.1    299.63494   -175.23662    173.75537     78.70641    79.572903    175.23662   0.90789196 
   78680    1088006.5    299.89014   -3.8565734    173.77727    78.732699    79.521285    3.8565734   0.90813247 
   78700    1087507.2    299.50469   -31.095781    173.79917    78.701873    79.505905    31.095781   0.90837297 
   78720      1087889     301.1431    -59.38825    173.82107    78.730783    79.494592     59.38825   0.90861347 
   78740    1088032.5    300.35454   -125.35528    173.84298    78.740395     79.48536    125.35528   0.90885397 
   78760    1088453.3    299.33193   -194.76242    173.86488    78.731173    79.515394    194.76242   0.90909447 
   78780    1088509.9    300.04552   -255.53708    173.88678    78.710745     79.53015    255.53708   0.90933497 
   78800    1087890.9    299.17927    130.32706    173.90869    78.677518    79.508475   -130.32706   0.90957547 
   78820    1087820.6    299.89347    189.85726    173.93059    78.649027    79.522124   -189.85726   0.90981597 
   78840    1087870.5    298.80895   -98.842843    173.95249    78.703458    79.460764    98.842843   0.91005647 
   78860    1089610.2    299.14888   -307.97165    173.97439    78.771098    79.509479    307.97165   0.91029697 
   78880    1088790.5    300.02008   -59.268243     173.9963    78.695853    79.515622    59.268243   0.91053747 
   78900    1088878.9    300.70581   -130.70644     174.0182      78.7251    79.482529    130.70644   0.91077797 
   78920    1089582.1    300.38571   -137.24105     174.0401    78.741186    79.507606    137.24105   0.91101847 
   78940    1089686.5      300.337   -168.07225    174.06201    78.680123    79.566922    168.07225   0.91125897 
   78960    1088888.6    300.69901    165.88995    174.08391    78.639461    79.539766   -165.88995   0.91149947 
   78980    1090124.2    300.88019   -12.064674    174.10581    78.659687    79.599532    12.064674   0.91173998 
   79000    1089919.3     302.2928   -73.470256    174.12771    78.712589    79.521076    73.470256   0.91198048 
   79020      1089980    301.36952   -79.347376    174.14962    78.786937     79.44047    79.347376   0.91222098 
   79040    1089998.5    301.96793    -204.7637    174.17152    78.725748    79.493565     204.7637   0.91246148 
   79060    1089004.1    301.89858   -152.05135    174.19342    78.692798    79.444303    152.05135   0.91270198 
   79080    1089561.8    299.94639   -2.9598799    174.21533    78.703397    79.464298    2.9598799   0.91294248 
   79100    1089936.2    301.60447   -77.255763    174.23723    78.740932    79.443721    77.255763   0.91318298 
   79120    1089521.9    299.33845   -144.37792    174.25913    78.793491    79.350573    144.37792   0.91342348 
   79140    1088765.8    300.81457   -129.43391    174.28103    78.789964    79.289094    129.43391   0.91366398 
   79160    1088298.6     300.4919    -126.5662    174.30294     78.71253    79.323064     126.5662   0.91390448 
   79180    1087109.7    299.84339   -13.685269    174.32484    78.689403     79.24974    13.685269   0.91414498 
   79200    1087557.9    301.35619   -139.28818    174.34674    78.665976    79.296063    139.28818   0.91438548 
   79220    1086652.6    301.08157   -45.359899    174.36865    78.635496    79.250806    45.359899   0.91462598 
   79240    1086507.9    299.53762   -122.55227    174.39055     78.63663    79.229161    122.55227   0.91486648 
   79260    1086883.8    299.70654   -94.964746    174.41245    78.660592    79.222477    94.964746   0.91510699 
   79280    1086713.4    300.50848   -113.00642    174.43435    78.648757    79.212029    113.00642   0.91534749 
   79300    1086361.7    300.75944    130.67102    174.45626    78.608802    79.216695   -130.67102   0.91558799 
   79320    1087131.4    300.12913   -6.8423768    174.47816    78.617906    79.253688    6.8423768   0.91582849 
   79340    1088155.3    298.85167   -133.15938    174.50006    78.641588    79.294492    133.15938   0.91606899 
   79360    1088780.4     299.8992   -153.04554    174.52197    78.665634    79.305839    153.04554   0.91630949 
   79380    1089210.5    299.94138   -187.82208    174.54387     78.67006    79.322745    187.82208   0.91654999 
   79400    1088973.3    299.93999    -35.68406    174.56577    78.641049    79.324774     35.68406   0.91679049 
   79420    1089580.2    300.91224   -146.46122    174.58767    78.623635    79.376603    146.46122   0.91703099 
   79440    1089967.5    300.09433   -88.715007    174.60958    78.621526    79.396989    88.715007   0.91727149 
   79460    1090232.5    299.64716   -195.21298    174.63148    78.663801    79.363656    195.21298   0.91751199 
   79480    1090065.5    301.74729    31.675214    174.65338    78.636456    79.369137   -31.675214   0.91775249 
   79500    1090628.1    299.54868   -32.307352    174.67529    78.575822    79.461412    32.307352   0.91799299 
   79520    1090818.4    299.83832    -57.74352    174.69719    78.586784    79.454233     57.74352   0.91823349 
   79540    1091089.1    300.47087   -14.943344    174.71909    78.572178    79.478756    14.943344   0.91847399 
   79560    1091112.5    300.15912    74.520819    174.74099    78.585628    79.456899   -74.520819    0.9187145 
   79580    1092450.2    300.27094   -221.32834     174.7629    78.649735    79.479507    221.32834     0.918955 
   79600    1092446.7    300.01987   -223.05268     174.7848    78.649475    79.469552    223.05268    0.9191955 
   79620    1091274.8    300.50139   -37.148232     174.8067    78.601196    79.423108    37.148232     0.919436 
   79640    1090706.1    300.00193    86.871792    174.82861    78.612285     79.36058   -86.871792    0.9196765 
   79660    1091634.5    300.66895   -246.12724    174.85051    78.620896    79.409482    246.12724     0.919917 
   79680    1090749.2    301.31785    3.0765974    174.87241    78.567642    79.388918   -3.0765974    0.9201575 
   79700    1090926.2    300.63892   -48.006733    174.89431    78.590505    79.368763    48.006733     0.920398 
   79720    1091221.5    300.82609   -165.07343    174.91622    78.532405    79.439029    165.07343    0.9206385 
   79740    1090217.3    301.36621     21.07296    174.93812    78.509027    79.379621    -21.07296     0.920879 
   79760    1090525.3    301.22175    163.61329    174.96002    78.497082    79.404186   -163.61329    0.9211195 
   79780    1092865.4    299.87748    -123.5637    174.98193    78.567466    79.493342     123.5637      0.92136 
   79800    1093889.4    300.75236   -252.23201    175.00383     78.56627    79.559078    252.23201    0.9216005 
   79820    1094004.4    301.09117   -154.79957    175.02573    78.556377    79.567499    154.79957     0.921841 
   79840    1095072.6    300.48267   -159.72064    175.04763    78.620992    79.569775    159.72064   0.92208151 
   79860    1095167.3    300.45004    -52.74387    175.06954    78.664245    79.522958     52.74387   0.92232201 
   79880    1095606.7    300.73623    91.860685    175.09144    78.642938    79.566463   -91.860685   0.92256251 
   79900    1096798.3    298.94291   -144.06607    175.11334    78.628471    79.657692    144.06607   0.92280301 
   79920    1096656.6    300.62665   -241.83171    175.13525    78.653522     79.61207    241.83171   0.92304351 
   79940      1095656    299.55115    30.897634    175.15715    78.553881    79.630364   -30.897634   0.92328401 
   79960    1096338.1     300.5871   -36.699517    175.17905    78.564621    79.659089    36.699517   0.92352451 
   79980    1096931.4    298.64596   -102.54284    175.20095    78.575763    79.680933    102.54284   0.92376501 
   80000      1096662     299.6585   -87.117826    175.22286    78.548914    79.678632    87.117826   0.92400551 
Loop time of 5932.12 on 64 procs for 80000 steps with 72040 atoms

Performance: 1.165 ns/day, 20.598 hours/ns, 13.486 timesteps/s
99.8% CPU use with 64 MPI tasks x 1 OpenMP threads

MPI task timing breakdown:
Section |  min time  |  avg time  |  max time  |%varavg| %total
---------------------------------------------------------------
Pair    | 773.78     | 1636.1     | 2289.3     | 980.6 | 27.58
Bond    | 53.714     | 98.086     | 123.82     | 175.7 |  1.65
Kspace  | 239.1      | 917.19     | 1825.3     |1366.7 | 15.46
Neigh   | 3091.9     | 3099.3     | 3111.3     |   9.4 | 52.25
Comm    | 129.81     | 141.19     | 150.71     |  49.8 |  2.38
Output  | 2.1679     | 2.2152     | 2.2742     |   1.2 |  0.04
Modify  | 31.092     | 33.592     | 37.791     |  27.8 |  0.57
Other   |            | 4.462      |            |       |  0.08

Nlocal:        1125.62 ave        1796 max          34 min
Histogram: 4 0 10 7 5 3 2 2 14 17
Nghost:        12166.8 ave       17524 max        6560 min
Histogram: 11 12 8 1 0 0 0 6 10 16
Neighs:       833569.0 ave 1.60106e+06 max       11349 min
Histogram: 7 9 6 8 0 1 2 11 16 4

Total # of neighbors = 53348409
Ave neighs/atom = 740.53871
Ave special neighs/atom = 5.9972238
Neighbor list builds = 80000
Dangerous builds not checked
Total wall time: 1:38:56
