LAMMPS (29 Oct 2020)
OMP_NUM_THREADS environment is not set. Defaulting to 1 thread. (../comm.cpp:94)
  using 1 OpenMP thread(s) per MPI task
####################################################
#    This program is free software: you can redistribute it and/or modify
#    it under the terms of the GNU General Public License as published by
#    the Free Software Foundation, either version 3 of the License, or
#    (at your option) any later version.
#
#    This program is distributed in the hope that it will be useful,
#    but WITHOUT ANY WARRANTY; without even the implied warranty of
#    MERCHANTABILITY or FITNESS FOR A PARTICULAR PURPOSE.  See the
#    GNU General Public License for more details.


units		real        ## defines the units style used herein. More information: https://docs.lammps.org/units.html
atom_style	full        ## defines the atom style used herein. More information: https://docs.lammps.org/atom_style.html

# Styles
pair_style      lj/cut/coul/long 15.0 10.0      ## sets the formula(s) LAMMPS uses to compute pairwise interactions; here, lennard-jones (LJ) with long-range Coulomb interaction. More: https://docs.lammps.org/pair_lj_cut_coul.html
pair_modify     shift no                        ## the shift keyword determines whether a Lennard-Jones potential is shifted at its cutoff to 0.0. More: https://docs.lammps.org/pair_modify.html
kspace_style    pppm 1.0e-4                     ## defines a long-range solver for LAMMPS to compute long-range Coulombic interactions. Note: requires use of a matching pair style, i.e. PPPM with coul/long. More: https://docs.lammps.org/kspace_style.html
bond_style      harmonic                        ## defined based off the forcefield used to construct the system; models the atoms' interactions
angle_style     harmonic
dihedral_style  opls
improper_style  cvff
special_bonds   lj 0 0 1 coul 0 0 1

read_data       500K_PMP.lmps      ## input lammps datafile, equilibriated until structure nears experimental properties
Reading data file ...
  orthogonal box = (79.464045 79.464045 79.464045) to (170.53596 170.53596 170.53596)
  4 by 4 by 4 MPI processor grid
  reading atoms ...
  72040 atoms
  reading velocities ...
  72040 velocities
  scanning bonds ...
  2 = max bonds/atom
  scanning angles ...
  6 = max angles/atom
  scanning dihedrals ...
  15 = max dihedrals/atom
  reading bonds ...
  72020 bonds
  reading angles ...
  143880 angles
  reading dihedrals ...
  215640 dihedrals
Finding 1-2 1-3 1-4 neighbors ...
  special bond factors lj:    0.0      0.0      1.0     
  special bond factors coul:  0.0      0.0      1.0     
     4 = max # of 1-2 neighbors
     9 = max # of 1-3 neighbors
    13 = max # of special neighbors
  special bonds CPU = 1.495 seconds
  read_data CPU = 3.417 seconds

dielectric      1.0
neighbor    	1.0 bin
neigh_modify	delay 0 every 1 check no        ## this is to make sure that the neighbor list is updated every timestep, and the atoms don't get lost as the system is being deformed ##

timestep	    1.0                             ## unit = fs, per "real" unit style
run_style       verlet                          ## defines algorithm used for simulation computation; verlet integration is a numerical method used to integrate Newton's equations of motion.

variable stress equal press*-1                         ## computes stress as the negative of press values
variable engStrain equal (lx-91.07191)/91.07191      ## computes engineering strain; lx_0 must be found and inputted manually (for now)

thermo		    20                                                               ## output log data (headers in thermo_style), recorded at every timestep in numList.txt
thermo_style    custom step vol temp press lx ly lz v_stress v_engStrain         ## data headers of output log file. More: https://docs.lammps.org/thermo_style.html

################# Deformation ##################

fix 1 all npt temp 500 500 100 y 1 1 100.0 z 1 1 100.0      ## stress normal to the x direction can vary; external pressure (y and z) = 1atm ##

fix 2 all deform 1 x scale 2.0 remap x                      ## sets a uniaxial (x-direction) deformation in motion, scaling a set amount (here, 4.0x) the initial length


################# Dumping ##################

reset_timestep 0

dump dump2 all custom 20000 sim.lammpstrj id mol type q xs ys zs ix iy iz

restart 40000 PMP.restart

run 		400000              ## this depends on the overall strain rate, where strain rate = deformScale / runTimeSteps (consider units!)
PPPM initialization ...
  using 12-bit tables for long-range coulomb (../kspace.cpp:328)
  G vector (1/distance) = 0.20213441
  grid = 24 24 24
  stencil order = 5
  estimated absolute RMS force accuracy = 0.023305294
  estimated relative force accuracy = 7.0183201e-05
  using double precision FFTW3
  3d grid and FFT values/proc = 1331 216
Neighbor list info ...
  update every 1 steps, delay 0 steps, check no
  max neighbors/atom: 2000, page size: 100000
  master list distance cutoff = 16
  ghost atom cutoff = 16
  binsize = 8, bins = 12 12 12
  1 neighbor lists, perpetual/occasional/extra = 1 0 0
  (1) pair lj/cut/coul/long, perpetual
      attributes: half, newton on
      pair build: half/bin/newton
      stencil: half/bin/3d/newton
      bin: standard
Per MPI rank memory allocation (min/avg/max) = 18.62 | 19.32 | 19.78 Mbytes
Step Volume Temp Press Lx Ly Lz v_stress v_engStrain 
       0    755358.88    501.97846    4608.9964     91.07191     91.07191     91.07191   -4608.9964 2.1543697e-09 
      20    761269.79    509.33639   -203.51028    91.076464    91.447085    91.403446    203.51028 5.0002154e-05 
      40    762732.56    506.72206   -438.66863    91.081017    91.550029    91.471527    438.66863 0.00010000215 
      60    760455.36    505.81693   -460.94312    91.085571    91.450479    91.293143    460.94312 0.00015000215 
      80    759901.32    505.82466   -386.18861    91.090125    91.438164    91.234354    386.18861 0.00020000215 
     100    759790.63    507.49465    -327.8355    91.094678    91.436169    91.218495     327.8355 0.00025000215 
     120    758570.78    509.77539    1428.1102    91.099232     91.33495    91.168414   -1428.1102 0.00030000216 
     140    760482.79    505.49281   -190.51469    91.103785     91.44346    91.285189    190.51469 0.00035000216 
     160    760526.56    505.79485   -360.69006    91.108339    91.435417     91.29391    360.69006 0.00040000216 
     180    759708.24      502.664   -73.362505    91.112893    91.383083    91.243345    73.362505 0.00045000216 
     200    760752.25    501.76161    181.77331    91.117446    91.466428    91.280916   -181.77331 0.00050000216 
     220    761862.39    503.25103   -81.232814       91.122     91.51254     91.36349    81.232814 0.00055000216 
     240    761040.52    499.62766    88.501776    91.126553    91.414031    91.358714   -88.501776 0.00060000216 
     260    760795.57    501.59771    90.888824    91.131107    91.363637    91.375118   -90.888824 0.00065000216 
     280    762101.71    501.70691   -265.32011    91.135661    91.455588    91.435395    265.32011 0.00070000216 
     300    762447.27    500.77219   -27.790226    91.140214    91.509745    91.418149    27.790226 0.00075000216 
     320    762006.55    501.81195    550.53133    91.144768    91.415524    91.454906   -550.53133 0.00080000216 
     340    762326.72    500.94226    219.08408    91.149321    91.390206    91.514107   -219.08408 0.00085000216 
     360    763249.22    497.55048   -132.15058    91.153875    91.503594    91.506739    132.15058 0.00090000216 
     380    763004.23    501.77563   -232.86755    91.158429    91.568359    91.408101    232.86755 0.00095000216 
     400    762581.21     497.2247    15.084604    91.162982    91.494901    91.426204   -15.084604 0.0010000022 
     420    761510.12    500.68776    467.52509    91.167536    91.431957    91.356078   -467.52509 0.0010500022 
     440    761515.06    497.87966    206.66215    91.172089    91.427763    91.356299   -206.66215 0.0011000022 
     460    762288.57    499.62964   -398.78378    91.176643    91.491486    91.380837    398.78378 0.0011500022 
     480    761103.34    498.93421   -320.23448    91.181196    91.436036    91.289526    320.23448 0.0012000022 
     500    760024.16    501.15612   -90.276272     91.18575    91.344997    91.246384    90.276272 0.0012500022 
     520    760365.38    498.07644    343.00202    91.190304    91.365445    91.262361   -343.00202 0.0013000022 
     540    760141.33    498.78186    581.89483    91.194857    91.417543    91.178923   -581.89483 0.0013500022 
     560    760839.16    499.07463   -243.48697    91.199411    91.491124    91.184676    243.48697 0.0014000022 
     580       760770    497.87996   -313.71646    91.203964    91.504518    91.158491    313.71646 0.0014500022 
     600    760785.96    498.16798    -156.7387    91.208518     91.55175    91.108824     156.7387 0.0015000022 
     620    761804.62    499.83495   -72.832576    91.213072    91.618993    91.159306    72.832576 0.0015500022 
     640    761825.14    498.38231    400.29289    91.217625    91.622705    91.153516   -400.29289 0.0016000022 
     660    761751.92     501.6789   -63.147138    91.222179    91.646488    91.116554    63.147138 0.0016500022 
     680    761976.47    500.50661    428.86554    91.226732    91.624964    91.160274   -428.86554 0.0017000022 
     700    763131.71    501.57622    -529.8044    91.231286    91.695004    91.224192     529.8044 0.0017500022 
     720    763007.81    499.83907   -451.94425     91.23584    91.683956     91.21582    451.94425 0.0018000022 
     740    762973.67    500.48698   -7.5352334    91.240393    91.639789    91.251144    7.5352334 0.0018500022 
     760    763010.29    500.06562   -43.046825    91.244947    91.633082    91.257649    43.046825 0.0019000022 
     780    762289.88    499.53393    37.654619      91.2495    91.614623    91.185305   -37.654619 0.0019500022 
     800    762277.45    502.31358   -215.63105    91.254054    91.562304    91.231369    215.63105 0.0020000022 
     820    762817.43    501.89701     -39.9312    91.258608    91.553454    91.300264      39.9312 0.0020500022 
     840    762833.54    501.42526    128.93321    91.263161    91.573322    91.277829   -128.93321 0.0021000022 
     860    763226.57    499.34228   -5.8368246    91.267715    91.597886    91.295812    5.8368246 0.0021500022 
     880     763082.7    500.64897   -92.677072    91.272268    91.568597    91.303243    92.677072 0.0022000022 
     900    762289.66    501.49346   -270.86949    91.276822    91.549245    91.223084    270.86949 0.0022500022 
     920     762780.6    501.05279   -175.46947    91.281376    91.643374    91.183528    175.46947 0.0023000022 
     940    763130.44    498.99031    -76.02677    91.285929    91.688022    91.176377     76.02677 0.0023500022 
     960    762475.29     500.5604   -6.1725923    91.290483      91.6206    91.160593    6.1725923 0.0024000022 
     980    762144.03    498.45563     183.2728    91.295036    91.534734    91.201915    -183.2728 0.0024500022 
    1000    762094.06    498.80493    100.79863     91.29959    91.453049    91.272839   -100.79863 0.0025000022 
    1020    762194.78     499.1973   -117.83199    91.304144    91.409562    91.323776    117.83199 0.0025500022 
    1040    761912.49    498.77237   -253.39341    91.308697    91.407092    91.287866    253.39341 0.0026000022 
    1060    761982.93    498.44329   -30.982779    91.313251    91.399154    91.299682    30.982779 0.0026500022 
    1080    763605.26    499.08986   -114.52838    91.317804    91.490594    91.398066    114.52838 0.0027000022 
    1100    763918.44    498.56154    191.80053    91.322358    91.569151    91.352553   -191.80053 0.0027500022 
    1120    763596.86    498.82303     299.1155    91.326912    91.603791    91.275015    -299.1155 0.0028000022 
    1140    763825.39    498.18495    81.761515    91.331465    91.584623    91.316889   -81.761515 0.0028500022 
    1160     764377.1    500.49987   -616.49561    91.336019    91.563179    91.399691    616.49561 0.0029000022 
    1180    764603.95     499.9437    146.40376    91.340572    91.509772    91.475614   -146.40376 0.0029500022 
    1200    765912.47    500.02803   -737.82357    91.345126    91.568406    91.568923    737.82357 0.0030000022 
    1220    765041.42    499.82434    410.15514     91.34968    91.552344    91.476271   -410.15514 0.0030500022 
    1240    764726.72    498.79554    226.87997    91.354233     91.58169    91.404786   -226.87997 0.0031000022 
    1260    765308.65    500.26551    37.560045    91.358787    91.596703    91.454789   -37.560045 0.0031500022 
    1280    765001.56    499.07789    192.86022     91.36334    91.632862    91.377464   -192.86022 0.0032000022 
    1300    764956.33    498.14299   -419.44653    91.367894    91.669614    91.330876    419.44653 0.0032500022 
    1320    765613.71    499.16983   -103.91972    91.372447    91.648366       91.426    103.91972 0.0033000022 
    1340    764620.63    500.24734    158.62192    91.377001    91.586746     91.36429   -158.62192 0.0033500022 
    1360    763498.63    499.97917      307.964    91.381555    91.570123    91.242237     -307.964 0.0034000022 
    1380    763939.71    499.87807    290.78827    91.386108    91.606486    91.254162   -290.78827 0.0034500022 
    1400    764661.95    502.27182   -326.83032    91.390662    91.628932    91.313509    326.83032 0.0035000022 
    1420    764163.91    500.67446    176.19379    91.395215    91.630356     91.24807   -176.19379 0.0035500022 
    1440     764301.5    499.29784   -309.03097    91.399769    91.651811    91.238589    309.03097 0.0036000022 
    1460    763995.45    501.75414   -89.330623    91.404323    91.594762    91.254312    89.330623 0.0036500022 
    1480    763906.35    499.33635    270.96215    91.408876     91.55046    91.283276   -270.96215 0.0037000022 
    1500    764087.89    501.56192   -294.76173     91.41343     91.56904    91.281895    294.76173 0.0037500022 
    1520    763360.99    499.94041    345.69908    91.417983    91.557196     91.20231   -345.69908 0.0038000022 
    1540    762770.86    498.83852   -163.13985    91.422537    91.557269    91.127194    163.13985 0.0038500022 
    1560    762815.89     499.7296   -134.74003    91.427091    91.627692    91.057995    134.74003 0.0039000022 
    1580    762762.05    500.39226   -123.04131    91.431644    91.632328    91.042427    123.04131 0.0039500022 
    1600    762851.13      498.778    -454.8919    91.436198     91.61504    91.065706     454.8919 0.0040000022 
    1620       762674    502.52764    643.75896    91.440751    91.571643    91.083173   -643.75896 0.0040500022 
    1640    763266.21    498.34556    196.50344    91.445305      91.6124    91.108807   -196.50344 0.0041000022 
    1660    763508.66    499.82289    -300.0261    91.449859    91.687106    91.058956     300.0261 0.0041500022 
    1680     763447.4    499.73698     150.3757    91.454412    91.736738    90.997857    -150.3757 0.0042000022 
    1700     764305.3    497.49568   -443.40116    91.458966    91.794069    91.038682    443.40116 0.0042500022 
    1720    764690.52    499.29384    21.159262    91.463519    91.809887     91.06434   -21.159262 0.0043000022 
    1740    765036.72    497.24355    324.16448    91.468073    91.827267    91.083791   -324.16448 0.0043500022 
    1760    765307.68    495.55392    -226.0846    91.472627    91.823463    91.115289     226.0846 0.0044000022 
    1780    764929.88    497.89586    -45.82502     91.47718    91.641915    91.246182     45.82502 0.0044500022 
    1800    765045.33    496.02001   -87.469949    91.481734    91.600423    91.296747    87.469949 0.0045000022 
    1820    764670.03    496.86059   -29.796136    91.486287    91.585711    91.262076    29.796136 0.0045500022 
    1840    765250.98    498.40583   -109.13615    91.490841    91.661686    91.251168    109.13615 0.0046000022 
    1860    765586.99    495.78089    227.25116    91.495395    91.692729    91.255786   -227.25116 0.0046500022 
    1880    765589.03    497.19394   -188.40509    91.499948    91.659139    91.284929    188.40509 0.0047000022 
    1900    764694.17    498.56608     375.9342    91.504502    91.560292    91.272122    -375.9342 0.0047500022 
    1920    765657.41    500.23946    -143.4086    91.509055    91.614848    91.328126     143.4086 0.0048000022 
    1940    766611.76    498.30616   -222.90963    91.513609    91.643965    91.408362    222.90963 0.0048500022 
    1960    766085.13    499.66882   -91.737231    91.518163    91.582031    91.402794    91.737231 0.0049000022 
    1980    765426.96     498.9235   -507.46291    91.522716    91.543379    91.358281    507.46291 0.0049500022 
    2000    765073.74    498.82841    99.865975     91.52727    91.506516    91.348363   -99.865975 0.0050000022 
    2020    765625.67    500.67088    -34.49269    91.531823    91.605457    91.310984     34.49269 0.0050500022 
    2040    765314.77    498.60704    269.36701    91.536377    91.554548    91.320115   -269.36701 0.0051000022 
    2060    765197.72    498.77905   -35.066825    91.540931    91.465675    91.390321    35.066825 0.0051500022 
    2080    764286.91    500.31309    46.780618    91.545484    91.371915    91.370661   -46.780618 0.0052000022 
    2100    764192.46    498.24499    29.352905    91.550038    91.448969    91.277852   -29.352905 0.0052500022 
    2120    764017.42    500.80454    588.90348    91.554591     91.42701    91.274322   -588.90348 0.0053000022 
    2140    764474.32    501.56822   -107.61178    91.559145     91.48437    91.267105    107.61178 0.0053500022 
    2160    763998.25    500.43447    42.662235    91.563699    91.454395    91.235626   -42.662235 0.0054000022 
    2180    764431.94    498.84838   -127.36408    91.568252    91.464857    91.272437    127.36408 0.0054500022 
    2200    765547.11    500.21291    -247.3441    91.572806    91.547443    91.318587     247.3441 0.0055000022 
    2220    766150.88    502.11747    215.37987    91.577359    91.630031    91.303696   -215.37987 0.0055500022 
    2240    766428.11    501.20958   -42.549381    91.581913    91.668998    91.293368    42.549381 0.0056000022 
    2260     766725.1    500.82567   -91.773802    91.586466    91.651468    91.341671    91.773802 0.0056500022 
    2280    766624.43    499.82265   -414.06078     91.59102    91.680925    91.295795    414.06078 0.0057000022 
    2300    765937.61    502.70986     165.0445    91.595574    91.626986    91.263162    -165.0445 0.0057500022 
    2320    765787.06    500.22568    -282.7401    91.600127    91.616856    91.250775     282.7401 0.0058000022 
    2340    765540.56    500.23348   -116.13048    91.604681     91.66348    91.170471    116.13048 0.0058500022 
    2360    765154.44    498.46182     432.5053    91.609234    91.672896    91.110598    -432.5053 0.0059000022 
    2380    765105.37    499.47397    39.138417    91.613788    91.729518    91.043993   -39.138417 0.0059500022 
    2400    765202.44     498.3801   -116.72447    91.618342    91.748164    91.032514    116.72447 0.0060000022 
    2420    765864.36    498.05521   -410.23275    91.622895    91.683832    91.170658    410.23275 0.0060500022 
    2440    765248.14     497.5345    169.30342    91.627449    91.659458    91.116999   -169.30342 0.0061000022 
    2460    765677.71    498.84973    -202.5277    91.632002    91.687205    91.136027     202.5277 0.0061500022 
    2480    766200.68    498.51468   -101.03072    91.636556    91.637691    91.243017    101.03072 0.0062000022 
    2500    766165.58    498.60275    379.02714     91.64111    91.652102    91.219959   -379.02714 0.0062500022 
    2520    765891.85    497.18514   -347.67083    91.645663    91.606655    91.228074    347.67083 0.0063000022 
    2540    764881.26    499.99296    302.50012    91.650217    91.562206    91.147398   -302.50012 0.0063500022 
    2560    764974.64    499.76772    305.30389     91.65477    91.588259    91.128067   -305.30389 0.0064000022 
    2580    765753.98    497.10509   -146.88466    91.659324    91.581064    91.223542    146.88466 0.0064500022 
    2600    765744.11    500.82117   -129.75898    91.663878    91.514917    91.283766    129.75898 0.0065000022 
    2620    765462.36    500.38203    213.15745    91.668431    91.458748    91.301685   -213.15745 0.0065500022 
    2640    765763.72    497.61375   -94.806063    91.672985    91.426288     91.36552    94.806063 0.0066000022 
    2660    765047.32     500.5843    140.13757    91.677538    91.415197    91.286584   -140.13757 0.0066500022 
    2680    765937.18    499.37425   -157.07477    91.682092    91.457192     91.34626    157.07477 0.0067000022 
    2700     767081.8    498.08583   -602.97382    91.686646    91.481132    91.454286    602.97382 0.0067500022 
    2720    765315.57    501.61975    83.013508    91.691199    91.389123    91.331037   -83.013508 0.0068000022 
    2740     764967.4    500.60101    287.31583    91.695753     91.33003    91.344017   -287.31583 0.0068500022 
    2760    765799.06    501.03192   -278.67715    91.700306    91.402563    91.366222    278.67715 0.0069000022 
    2780    765622.07    502.07732    167.82279     91.70486    91.421743    91.321407   -167.82279 0.0069500022 
    2800    766129.98    499.03437   -20.275792    91.709414    91.430776    91.368425    20.275792 0.0070000022 
    2820    766800.08    500.65208    -773.9857    91.713967    91.545927    91.328777     773.9857 0.0070500022 
    2840    764957.42    499.90865     560.7433    91.718521    91.532758    91.117894    -560.7433 0.0071000022 
    2860    766000.23    499.97598   -12.258459    91.723074     91.51041     91.25986    12.258459 0.0071500022 
    2880    766281.88    502.52024   -181.30445    91.727628    91.484566    91.314672    181.30445 0.0072000022 
    2900    764897.41    500.92939    688.01268    91.732182     91.38278    91.246687   -688.01268 0.0072500022 
    2920    765264.92    499.93224   -208.52922    91.736735    91.426316    91.242527    208.52922 0.0073000022 
    2940    766046.73    499.63495   -770.15115    91.741289    91.517089    91.240621    770.15115 0.0073500022 
    2960    765609.75    499.70194   -119.08857    91.745842    91.512772    91.188349    119.08857 0.0074000022 
    2980    765443.84    497.22909    41.510438    91.750396    91.482629    91.194101   -41.510438 0.0074500022 
    3000    765937.21     502.0556   -85.798301     91.75495    91.541946    91.189225    85.798301 0.0075000022 
    3020    765844.31    499.30063    97.074614    91.759503    91.548097    91.167514   -97.074614 0.0075500022 
    3040    766031.44    500.44165    318.17948    91.764057    91.550391    91.182981   -318.17948 0.0076000022 
    3060    766783.85    498.35907    184.37948     91.76861     91.63506    91.183683   -184.37948 0.0076500022 
    3080    766628.98    498.25557    -239.1015    91.773164    91.730947    91.065452     239.1015 0.0077000022 
    3100    767007.62    498.43918   -308.35966    91.777718    91.853197    90.984654    308.35966 0.0077500022 
    3120    767517.75    499.61685    83.587298    91.782271    91.881154    91.012949   -83.587298 0.0078000022 
    3140    767849.39    498.72758    254.64562    91.786825    91.932959    90.996452   -254.64562 0.0078500022 
    3160     766974.5    499.12659     230.1319    91.791378    91.924037    90.897084    -230.1319 0.0079000022 
    3180     766340.3    498.74667   -252.15238    91.795932    91.882199    90.858769    252.15238 0.0079500022 
    3200    765276.69    495.81345   -404.49535    91.800485    91.811668    90.797864    404.49535 0.0080000022 
    3220    764700.27    500.89289   -87.296827    91.805039    91.770194    90.765974    87.296827 0.0080500022 
    3240    764882.47    496.87753    229.07417    91.809593    91.704542     90.84809   -229.07417 0.0081000022 
    3260    765634.36    496.33106   -136.92777    91.814146    91.752351    90.885503    136.92777 0.0081500022 
    3280    765099.87    496.91311   -36.104158      91.8187    91.730751    90.838935    36.104158 0.0082000022 
    3300    764704.73    499.58514   -79.076213    91.823253    91.704189    90.813816    79.076213 0.0082500022 
    3320    765439.19    498.27153    147.14679    91.827807    91.711685    90.889101   -147.14679 0.0083000022 
    3340    765744.93    498.19384    268.38039    91.832361     91.70131    90.931183   -268.38039 0.0083500022 
    3360    765888.61    498.55901   -84.075139    91.836914    91.683317    90.961583    84.075139 0.0084000022 
    3380    766265.99    498.71534    -329.4091    91.841468    91.692934    90.992347     329.4091 0.0084500022 
    3400    766537.76    498.87355   -270.25702    91.846021    91.694227    91.018822    270.25702 0.0085000022 
    3420    766905.84    498.61607   -222.99777    91.850575    91.706034     91.04629    222.99777 0.0085500022 
    3440    766609.05    499.42395    648.12937    91.855129    91.695869    91.016632   -648.12937 0.0086000022 
    3460    766763.07    501.63381    102.93961    91.859682    91.640747    91.085161   -102.93961 0.0086500022 
    3480    766250.62    500.91553   -259.64245    91.864236    91.580172    91.079978    259.64245 0.0087000022 
    3500    766015.54    501.65869   -281.06151    91.868789    91.540145    91.087334    281.06151 0.0087500022 
    3520    765488.65    501.06402   -252.85185    91.873343    91.497091    91.062999    252.85185 0.0088000022 
    3540    764498.93    499.34437    63.986249    91.877897    91.442444    90.995102   -63.986249 0.0088500022 
    3560    764063.62    500.63242    446.53035     91.88245    91.438054    90.943148   -446.53035 0.0089000022 
    3580    765095.96    501.65464   -2.2666031    91.887004    91.430537    91.068996    2.2666031 0.0089500022 
    3600    765494.68    499.10811    42.991292    91.891557    91.453202     91.08936   -42.991292 0.0090000022 
    3620    765859.12    501.42415   -45.596305    91.896111    91.489141    91.092413    45.596305 0.0090500022 
    3640    765154.65    500.25422   -118.79064    91.900665    91.420712    91.072231    118.79064 0.0091000022 
    3660    765087.23    500.18832   -11.716441    91.905218    91.382701     91.09757    11.716441 0.0091500022 
    3680    766169.44    500.13892    -251.7841    91.909772    91.449547    91.155228     251.7841 0.0092000022 
    3700    765446.54    501.82129   -11.714852    91.914325    91.432548     91.08164    11.714852 0.0092500022 
    3720    764096.05    499.88084    146.73217    91.918879    91.380136    90.968584   -146.73217 0.0093000022 
    3740    764704.91    499.71126   -89.074459    91.923433    91.401498    91.015284    89.074459 0.0093500022 
    3760    764680.68     499.8183   -151.29243    91.927986    91.394374    91.014987    151.29243 0.0094000022 
    3780    764334.35    497.34133   -15.290716     91.93254    91.413878    90.949849    15.290716 0.0094500022 
    3800    764802.06    500.91105   -20.023062    91.937093     91.38781    91.026954    20.023062 0.0095000022 
    3820    764993.06    499.54646   -179.49172    91.941647    91.357711    91.075173    179.49172 0.0095500022 
    3840     764496.7    498.89215    291.42587    91.946201     91.29267    91.076413   -291.42587 0.0096000022 
    3860    764890.58    497.97735   -305.32153    91.950754    91.265982    91.145469    305.32153 0.0096500022 
    3880    764469.55    499.43809   -245.64661    91.955308    91.250043    91.106699    245.64661 0.0097000022 
    3900    763819.64    499.94108    129.66602    91.959861    91.219579    91.055137   -129.66602 0.0097500022 
    3920    764195.29    498.71068    371.45745    91.964415    91.191558    91.123399   -371.45745 0.0098000022 
    3940     764509.4    502.19298    181.59827    91.968969    91.226358    91.121566   -181.59827 0.0098500022 
    3960    765335.56    498.92961   -115.79502    91.973522    91.328083     91.11392    115.79502 0.0099000022 
    3980    765927.82     499.7819   -515.09602    91.978076    91.348784    91.159252    515.09602 0.0099500022 
    4000    765795.84    498.68673   -361.67929    91.982629    91.395383    91.092564    361.67929  0.010000002 
    4020    765546.73    498.56645    365.32426    91.987183    91.376026    91.077714   -365.32426  0.010050002 
    4040    766590.14    498.66558    167.73663    91.991736    91.406031    91.167398   -167.73663  0.010100002 
    4060    765953.46    500.19226    247.07052     91.99629    91.350969    91.142075   -247.07052  0.010150002 
    4080    765832.56    500.76723   -192.54839    92.000844    91.424626    91.049763    192.54839  0.010200002 
    4100    766298.16    500.74417   -150.67355    92.005397     91.38705    91.138068    150.67355  0.010250002 
    4120    765715.72    499.85598    136.17657    92.009951    91.358511    91.092737   -136.17657  0.010300002 
    4140    765596.33    501.37915    473.24376    92.014504    91.368361    91.064208   -473.24376  0.010350002 
    4160    766185.11    499.92719   -157.14715    92.019058    91.400448     91.09774    157.14715  0.010400002 
    4180    766131.33     497.4347     198.2486    92.023612    91.358285    91.128876    -198.2486  0.010450002 
    4200    767189.91    500.12646   -249.46934    92.028165     91.40588    91.202761    249.46934  0.010500002 
    4220    768017.69    499.62633   -422.35374    92.032719    91.377126    91.325378    422.35374  0.010550002 
    4240    767934.23    499.29304   -90.365573    92.037272    91.379489    91.308573    90.365573  0.010600002 
    4260    767912.89    502.14394    221.10094    92.041826     91.49588    91.185377   -221.10094  0.010650002 
    4280     768270.4    500.52082   -113.14368     92.04638    91.571432    91.148051    113.14368  0.010700002 
    4300    768330.37    502.57895    288.49092    92.050933    91.545154     91.17682   -288.49092  0.010750002 
    4320    768610.65    499.43226   -8.3435446    92.055487    91.542215    91.208498    8.3435446  0.010800002 
    4340    767516.27    498.89636    69.573702     92.06004    91.461539     91.15446   -69.573702  0.010850002 
    4360    767713.66    499.77696    -489.1988    92.064594    91.453507    91.181401     489.1988  0.010900002 
    4380    768385.87    498.91062   -172.60035    92.069148    91.509444    91.200943    172.60035  0.010950002 
    4400    769284.77    501.52779    54.129941    92.073701    91.580445    91.232333   -54.129941  0.011000002 
    4420    768837.65    500.10325    386.08894    92.078255    91.514469     91.24053   -386.08894  0.011050002 
    4440    769833.77    500.27762   -103.90248    92.082808    91.532717    91.336013    103.90248  0.011100002 
    4460    770016.35    496.29064   -552.23938    92.087362    91.534098    91.351779    552.23938  0.011150002 
    4480    769553.79      501.487   -349.37776    92.091916    91.473964    91.352403    349.37776  0.011200002 
    4500    769792.05    498.48213   -43.452727    92.096469    91.454989    91.395127    43.452727  0.011250002 
    4520    769379.42    500.46985    722.70791    92.101023    91.426679    91.369903   -722.70791  0.011300002 
    4540    768879.95    501.34337    404.10516    92.105576    91.318391    91.414347   -404.10516  0.011350002 
    4560    769829.62    499.12528   -361.88479     92.11013    91.289244    91.551952    361.88479  0.011400002 
    4580    769749.07    497.85261   -333.34681    92.114684    91.233727     91.59355    333.34681  0.011450002 
    4600    768672.52    500.14112   -41.369574    92.119237     91.19017    91.504615    41.369574  0.011500002 
    4620    769200.33    497.94612   -118.37719    92.123791     91.24465     91.50825    118.37719  0.011550002 
    4640    769185.21    500.82474    136.58902    92.128344    91.204471    91.542239   -136.58902  0.011600002 
    4660    769478.75    500.88883    -185.7339    92.132898    91.151722     91.62564     185.7339  0.011650002 
    4680    769077.48    500.88086    292.05041    92.137452    91.089152    91.636235   -292.05041  0.011700002 
    4700    768258.82    500.89572     318.8352    92.142005    91.016535    91.607197    -318.8352  0.011750002 
    4720    768340.56    499.69299   -458.90386    92.146559    90.971773    91.657495    458.90386  0.011800002 
    4740    768596.95    500.06682   -273.71789    92.151112    90.947683    91.707834    273.71789  0.011850002 
    4760    769028.92    498.08439   -575.09701    92.155666    90.964885    91.737491    575.09701  0.011900002 
    4780    768164.02    499.61704    231.33468     92.16022    90.937649    91.657233   -231.33468  0.011950002 
    4800       767842    498.36157    479.60955    92.164773    90.942237    91.609661   -479.60955  0.012000002 
    4820    768357.13    499.81099   -394.79658    92.169327     90.96513     91.64352    394.79658  0.012050002 
    4840    768548.23     500.7998   -327.69146     92.17388    90.935637    91.691513    327.69146  0.012100002 
    4860    767088.12    499.62199    372.42817    92.178434    90.847443    91.601635   -372.42817  0.012150002 
    4880    767348.25     498.3672   -266.55657    92.182988    90.894056    91.581182    266.55657  0.012200002 
    4900    767249.72    499.21044   -199.04126    92.187541    90.888821    91.570174    199.04126  0.012250002 
    4920    767105.37    501.96403   -212.73916    92.192095    90.907564    91.529548    212.73916  0.012300002 
    4940    767877.23    501.77301   -130.60292    92.196648    90.997641     91.52643    130.60292  0.012350002 
    4960    767583.24    500.51371    284.24015    92.201202    90.968137    91.516542   -284.24015  0.012400002 
    4980    766476.66    501.85315    13.205513    92.205755    90.919186    91.429294   -13.205513  0.012450002 
    5000    766754.72    499.80764   -361.72969    92.210309    90.978282    91.398539    361.72969  0.012500002 
    5020    767040.51    502.39683    97.630377    92.214863    90.963164    91.443285   -97.630377  0.012550002 
    5040    767033.56    501.23133    46.775681    92.219416    90.911716    91.489687   -46.775681  0.012600002 
    5060    767624.28    502.13069   -228.53272     92.22397    90.871517    91.596127    228.53272  0.012650002 
    5080    766721.64    500.46897    54.128677    92.228523    90.800574     91.55538   -54.128677  0.012700002 
    5100     766485.6    502.18587    49.643555    92.233077    90.779738    91.543683   -49.643555  0.012750002 
    5120    766774.79    502.06015    8.5546336    92.237631    90.755982     91.59767   -8.5546336  0.012800002 
    5140    766923.01    501.06888    163.43568    92.242184    90.736051    91.630978   -163.43568  0.012850002 
    5160    766726.14    499.47541   -285.75373    92.246738    90.697285    91.642086    285.75373  0.012900002 
    5180    765674.44    499.53211    190.34579    92.251291    90.619874    91.590039   -190.34579  0.012950002 
    5200    765683.77    499.77273   -392.74852    92.255845    90.593948    91.612844    392.74852  0.013000002 
    5220    764732.04    499.85355   -402.16349    92.260399    90.526408    91.562717    402.16349  0.013050002 
    5240    763463.61    501.50364    130.42465    92.264952    90.506403    91.426539   -130.42465  0.013100002 
    5260    763769.89    501.13543     310.4565    92.269506    90.616133    91.347952    -310.4565  0.013150002 
    5280    764719.11    499.03825    71.805814    92.274059    90.671975     91.40064   -71.805814  0.013200002 
    5300    764102.31    502.29536    200.81246    92.278613    90.648786    91.345774   -200.81246  0.013250002 
    5320    764279.28    498.93012    -403.3904    92.283167    90.667898    91.343164     403.3904  0.013300002 
    5340    763429.21    499.62089   -326.45411     92.28772    90.645119    91.259993    326.45411  0.013350002 
    5360    763204.06    498.37612   -240.79859    92.292274    90.635289    91.238472    240.79859  0.013400002 
    5380    764433.83    498.35971   -138.08186    92.296827    90.698939    91.316849    138.08186  0.013450002 
    5400     764934.4    499.38301    193.01407    92.301381     90.65804    91.413359   -193.01407  0.013500002 
    5420    764668.38     498.0307    348.93138    92.305935    90.552907    91.483151   -348.93138  0.013550002 
    5440    765694.91    498.95186    -240.6103    92.310488    90.507691    91.647205     240.6103  0.013600002 
    5460    766035.56    500.88787   -105.93129    92.315042    90.523191    91.667757    105.93129  0.013650002 
    5480    765384.53    499.95437    61.079395    92.319595    90.543044    91.565253   -61.079395  0.013700002 
    5500    765859.37    502.03191   -23.421225    92.324149    90.572553     91.58769    23.421225  0.013750002 
    5520    765529.66    501.07095     412.7857    92.328703    90.556782    91.559689    -412.7857  0.013800002 
    5540    765572.63    499.97705    89.519032    92.333256    90.534672    91.582673   -89.519032  0.013850002 
    5560     765363.6    501.26317   -421.29597     92.33781    90.562108    91.525416    421.29597  0.013900002 
    5580    765622.16     498.9732   -266.70058    92.342363    90.600179     91.51335    266.70058  0.013950002 
    5600    766126.65    500.36916   -150.00915    92.346917    90.628808     91.54021    150.00915  0.014000002 
    5620    765917.39    500.86846   -173.95734    92.351471    90.651553    91.487734    173.95734  0.014050002 
    5640    764969.52    502.21609    287.39459    92.356024    90.616172    91.405682   -287.39459  0.014100002 
    5660    764914.59    502.62386    110.45476    92.360578    90.647975    91.362548   -110.45476  0.014150002 
    5680    765529.39    502.84536   -62.325009    92.365131    90.715702     91.36321    62.325009  0.014200002 
    5700    766138.78    502.98749    17.215751    92.369685    90.742069    91.404864   -17.215751  0.014250002 
    5720     767060.2    504.03684   -444.26924    92.374239    90.794403    91.457537    444.26924  0.014300002 
    5740    766263.43    501.82797    110.91821    92.378792    90.777574     91.37497   -110.91821  0.014350002 
    5760    766369.84    502.26027    97.022406    92.383346    90.763867    91.396956   -97.022406  0.014400002 
    5780    766998.34    502.21362    16.497548    92.387899    90.806962    91.423993   -16.497548  0.014450002 
    5800    767043.68    501.82415   -308.59452    92.392453    90.857353    91.374186    308.59452  0.014500002 
    5820    766706.59    500.21834    -77.58868    92.397006    90.841483    91.345484     77.58868  0.014550002 
    5840     767434.1    501.43375    8.9205364     92.40156    90.853633    91.415426   -8.9205364  0.014600002 
    5860    768342.38    500.30317   -518.31638    92.406114    90.816615    91.556413    518.31638  0.014650002 
    5880    768098.33     502.1498   -50.081605    92.410667    90.813476    91.525986    50.081605  0.014700002 
    5900    768171.26    501.47978    129.67608    92.415221    90.883758    91.459384   -129.67608  0.014750002 
    5920    768433.76    501.67283    307.10811    92.419774    90.897639    91.472159   -307.10811  0.014800002 
    5940    768840.85     499.3697    152.12321    92.424328    90.886486    91.527339   -152.12321  0.014850002 
    5960     769181.4    500.62989   -378.79639    92.428882    90.875751    91.574186    378.79639  0.014900002 
    5980    768992.48    498.81018   -312.75156    92.433435    90.790759    91.632883    312.75156  0.014950002 
    6000    768616.53     498.5025    130.32394    92.437989    90.674577     91.70092   -130.32394  0.015000002 
    6020    769764.98    497.92442    43.997016    92.442542    90.750377    91.756709   -43.997016  0.015050002 
    6040    770701.28    498.24201   -151.98367    92.447096    90.792402    91.821271    151.98367  0.015100002 
    6060    770418.22    498.72129   -14.158728     92.45165    90.795725    91.779667    14.158728  0.015150002 
    6080    770926.32    499.18848    -71.20073    92.456203    90.863232    91.767444     71.20073  0.015200002 
    6100    771824.11    499.63411   -348.66107    92.460757    90.940518    91.791713    348.66107  0.015250002 
    6120     771923.3    499.66825    4.1241821     92.46531    90.965202    91.774078   -4.1241821  0.015300002 
    6140    771295.59    496.61998     108.5422    92.469864    90.941721    91.718609    -108.5422  0.015350002 
    6160    771174.45    501.78695    184.66293    92.474418    90.899703    91.742076   -184.66293  0.015400002 
    6180    772189.25    499.22914   -252.16115    92.478971    90.974542    91.782711    252.16115  0.015450002 
    6200     772193.1    501.21546   -221.04535    92.483525    91.017891    91.734939    221.04535  0.015500002 
    6220    772253.06    500.18251    131.25512    92.488078    91.011023    91.744467   -131.25512  0.015550002 
    6240    772761.51    500.51984   -80.072231    92.492632    91.013598    91.797754    80.072231  0.015600002 
    6260    772499.66     501.3109    166.54672    92.497186    91.030853    91.744738   -166.54672  0.015650002 
    6280    772448.56    501.36731   -192.16012    92.501739    91.056853    91.707959    192.16012  0.015700002 
    6300    772697.01    502.27415   -170.62771    92.506293    91.049827     91.74002    170.62771  0.015750002 
    6320    771074.91    500.39331    154.48603    92.510846    90.875076    91.718962   -154.48603  0.015800002 
    6340     770568.1    502.20101    338.03193      92.5154    90.860336    91.669034   -338.03193  0.015850002 
    6360    771289.48    501.23767    -373.5482    92.519954    90.921818    91.688294     373.5482  0.015900002 
    6380    769815.47    501.43966    -102.9447    92.524507    90.818622    91.612545     102.9447  0.015950002 
    6400    769305.45      501.089   -241.42767    92.529061    90.744279    91.622345    241.42767  0.016000002 
    6420     770240.7    500.66827   -60.567027    92.533614     90.81655    91.656219    60.567027  0.016050002 
    6440    771055.94    500.67556   -133.22702    92.538168    90.831221    91.733895    133.22702  0.016100002 
    6460    770847.36     501.7155    164.42027    92.542722    90.757595    91.778962   -164.42027  0.016150002 
    6480    770522.65    499.37021   -182.36002    92.547275     90.71536    91.778498    182.36002  0.016200002 
    6500     770264.9    500.42901    40.146419    92.551829    90.669615    91.789569   -40.146419  0.016250002 
    6520    770963.36    499.67296   -101.92202    92.556382    90.687694    91.849968    101.92202  0.016300002 
    6540    770988.34    501.82044   -423.49745    92.560936    90.725119    91.810537    423.49745  0.016350002 
    6560    770603.18    500.69078    -121.7504     92.56549    90.757666    91.727251     121.7504  0.016400002 
    6580     771423.3    501.64724    332.42688    92.570043    90.835854    91.741319   -332.42688  0.016450002 
    6600    772003.17    499.90067    401.52666    92.574597    90.865787    91.775522   -401.52666  0.016500002 
    6620    772058.14    500.74475    259.39901     92.57915    90.820439    91.823367   -259.39901  0.016550002 
    6640    772438.61    500.48598   -157.54086    92.583704    90.854983    91.829173    157.54086  0.016600002 
    6660    772540.27    499.37026   -362.21993    92.588258     90.86524    91.826375    362.21993  0.016650002 
    6680    772764.92    499.40657   -666.96295    92.592811    90.847814    91.866178    666.96295  0.016700002 
    6700     773144.5    500.37771   -429.87017    92.597365    90.878317    91.875935    429.87017  0.016750002 
    6720    772593.66    499.14892    328.68413    92.601918    90.864423    91.819998   -328.68413  0.016800002 
    6740     772780.7    500.46113    496.32242    92.606472    90.882045    91.819906   -496.32242  0.016850002 
    6760    773271.72    499.64703    246.17358    92.611025     90.86782    91.888112   -246.17358  0.016900002 
    6780    773729.13    499.13949   -277.80854    92.615579    90.854789    91.951132    277.80854  0.016950002 
    6800     774695.6    497.85262   -738.43577    92.620133    90.936165    91.979079    738.43577  0.017000002 
    6820    774077.67    498.91431   -293.90697    92.624686    90.957383    91.879756    293.90697  0.017050002 
    6840    773605.27    497.77959    416.14712     92.62924    90.974972    91.801417   -416.14712  0.017100002 
    6860    773861.33    501.55899    175.76517    92.633793    91.019011     91.78286   -175.76517  0.017150002 
    6880    773574.77     499.4513   -52.519029    92.638347    91.037572    91.725657    52.519029  0.017200002 
    6900    773098.41    500.89819   -81.173971    92.642901    91.037967     91.66427    81.173971  0.017250002 
    6920    773209.09    499.04537    23.630187    92.647454    91.099824    91.610642   -23.630187  0.017300002 
    6940    773386.77    500.97284   -257.66867    92.652008    91.125552     91.60132    257.66867  0.017350002 
    6960    773060.01    501.25735   -46.698825    92.656561    91.129542     91.55411    46.698825  0.017400002 
    6980     772497.7     500.8924   -67.878623    92.661115    91.144116     91.46839    67.878623  0.017450002 
    7000    772128.76    500.80046   -131.55682    92.665669    91.104218    91.460249    131.55682  0.017500002 
    7020    772209.66    502.44459   -170.98352    92.670222    91.084689    91.484949    170.98352  0.017550002 
    7040    772000.83    503.70808    192.64872    92.674776    91.076998    91.463436   -192.64872  0.017600002 
    7060    772831.31    502.79756   -183.05803    92.679329    91.114858    91.519287    183.05803  0.017650002 
    7080    772847.28    501.08624    216.59872    92.683883    91.085523    91.546154   -216.59872  0.017700002 
    7100     773475.6    501.93097    -334.7657    92.688437     91.05266    91.649146     334.7657  0.017750002 
    7120    773157.69    502.33779   -222.66389     92.69299    90.994208    91.665823    222.66389  0.017800002 
    7140     773112.4    499.40687    85.079192    92.697544    90.968825    91.681525   -85.079192  0.017850002 
    7160    773297.38    500.37475     110.4771    92.702097    90.914998    91.753247    -110.4771  0.017900002 
    7180    773231.67    500.30651   -282.84618    92.706651    90.866181    91.790232    282.84618  0.017950002 
    7200    773029.26    499.01943   -383.08389    92.711205    90.897549    91.730031    383.08389  0.018000002 
    7220    772358.99     501.5712   -47.262258    92.715758    90.865258    91.678561    47.262258  0.018050002 
    7240    771819.99    499.10957   -91.922189    92.720312    90.850283    91.625182    91.922189  0.018100002 
    7260    771111.24    499.62287    17.246821    92.724865    90.813378    91.573749   -17.246821  0.018150002 
    7280    770888.67    500.29818   -92.632036    92.729419    90.776715    91.579794    92.632036  0.018200002 
    7300    770578.39    501.32901   -30.790599    92.733973    90.781624    91.533489    30.790599  0.018250002 
    7320     770399.5    499.29924   -4.0219914    92.738526    90.788928    91.500383    4.0219914  0.018300002 
    7340    770080.22    501.16887    224.61089     92.74308    90.707146     91.54043   -224.61089  0.018350002 
    7360    769782.89    499.20187   -33.855481    92.747633    90.624779    91.583757    33.855481  0.018400002 
    7380    769139.24     499.5028    -260.7771    92.752187    90.572654    91.555349     260.7771  0.018450002 
    7400    768887.31    501.19437    497.00119    92.756741    90.563012    91.530609   -497.00119  0.018500002 
    7420    769656.44    499.63581   -484.16294    92.761294    90.684552    91.494881    484.16294  0.018550002 
    7440    768805.85    498.11007   -354.97178    92.765848    90.647806    91.426325    354.97178  0.018600002 
    7460    767882.36     499.6844    485.83028    92.770401    90.541599    91.419133   -485.83028  0.018650002 
    7480    768785.08    499.35883   -216.63542    92.774955    90.598109    91.465026    216.63542  0.018700002 
    7500    768450.25    499.54731    279.67392    92.779509    90.600368    91.418423   -279.67392  0.018750002 
    7520    768521.26    499.49824    122.06391    92.784062    90.593098    91.429721   -122.06391  0.018800002 
    7540    769103.47    500.17341   -335.51668    92.788616    90.599238    91.488294    335.51668  0.018850002 
    7560    769613.56    500.59448   -470.37852    92.793169    90.628349    91.515073    470.37852  0.018900002 
    7580    768530.76    499.94384    546.95693    92.797723     90.49784    91.513617   -546.95693  0.018950002 
    7600    768775.54    501.20996    57.012097    92.802276    90.494659    91.541491   -57.012097  0.019000002 
    7620    768115.48    503.35989   -303.09347     92.80683    90.380544    91.573883    303.09347  0.019050002 
    7640    767218.87    499.78878   -167.17725    92.811384    90.325664    91.518073    167.17725  0.019100002 
    7660    767549.65    501.04368    114.85907    92.815937    90.382474    91.495492   -114.85907  0.019150002 
    7680    768318.45     503.8215    185.64996    92.820491    90.474386    91.489606   -185.64996  0.019200002 
    7700    768286.93    500.28898    323.79792    92.825044    90.451565    91.504445   -323.79792  0.019250002 
    7720    768467.08    500.78427   -117.87999    92.829598     90.41626    91.557149    117.87999  0.019300002 
    7740    768549.91    500.44801   -549.36263    92.834152    90.374615    91.604718    549.36263  0.019350002 
    7760    768270.23    502.15353   -264.63528    92.838705    90.359152    91.582561    264.63528  0.019400002 
    7780    768740.18     502.5559   -39.149372    92.843259    90.458934    91.533009    39.149372  0.019450002 
    7800     768930.2    501.05987    461.86199    92.847812    90.519253    91.490138   -461.86199  0.019500002 
    7820     768902.2    501.68986   -20.126918    92.852366    90.551084    91.450162    20.126918  0.019550002 
    7840    768222.39    501.57182   -138.38146     92.85692    90.453922    91.462967    138.38146  0.019600002 
    7860    768630.43    499.51882   -325.94715    92.861473     90.48872    91.471871    325.94715  0.019650002 
    7880    768370.12    499.13608    358.11568    92.866027    90.484847    91.440322   -358.11568  0.019700002 
    7900    768359.18    500.17792   -17.408382     92.87058    90.536538    91.382333    17.408382  0.019750002 
    7920    767848.33    500.14234    86.882997    92.875134    90.617973    91.235036   -86.882997  0.019800002 
    7940    768375.65    498.95944   -311.00654    92.879688    90.652212    91.258734    311.00654  0.019850002 
    7960    768138.24     500.0179   -103.73302    92.884241     90.57602    91.302805    103.73302  0.019900002 
    7980    767131.51    498.98361    478.48001    92.888795    90.479173    91.276267   -478.48001  0.019950002 
    8000    767090.29     501.0905    358.00362    92.893348    90.429818    91.316701   -358.00362  0.020000002 
    8020    768188.83    499.39214   -463.85614    92.897902    90.414379    91.458607    463.85614  0.020050002 
    8040    767763.89    499.15524   -29.600749    92.902456    90.410407    91.407549    29.600749  0.020100002 
    8060    766794.45    498.90183    -291.9199    92.907009    90.398142    91.300042     291.9199  0.020150002 
    8080    766248.21    497.16244    -336.5423    92.911563    90.445752    91.182508     336.5423  0.020200002 
    8100     766327.7    498.51728   -86.648001    92.916116    90.478249    91.154746    86.648001  0.020250002 
    8120    766826.23    499.44094   -69.096871     92.92067    90.441835    91.246299    69.096871  0.020300002 
    8140    767107.47    499.97968    104.20877    92.925224    90.464138    91.252789   -104.20877  0.020350002 
    8160    767471.04    499.73702   -178.89224    92.929777    90.496625    91.258793    178.89224  0.020400002 
    8180     767437.2     500.9056    278.41922    92.934331    90.483169    91.263867   -278.41922  0.020450002 
    8200     768495.7    500.73601   -618.14467    92.938884     90.48399    91.384438    618.14467  0.020500002 
    8220    768420.76    502.95051    233.19978    92.943438     90.44433    91.411116   -233.19978  0.020550002 
    8240    768593.03    503.14812    48.929355    92.947992    90.401477     91.47047   -48.929355  0.020600002 
    8260    769225.22    502.11484   -38.880797    92.952545    90.426018    91.516378    38.880797  0.020650002 
    8280    769134.52    501.04866    103.68315    92.957099    90.413127    91.514151   -103.68315  0.020700002 
    8300    769955.31     500.1863   -243.52395    92.961652    90.446049    91.573979    243.52395  0.020750002 
    8320    770431.42    499.81949   -227.01324    92.966206    90.383065    91.689966    227.01324  0.020800002 
    8340     770269.6    501.72933   -134.84455     92.97076    90.373421       91.676    134.84455  0.020850002 
    8360    771037.28    500.42227   -337.90399    92.975313    90.490552    91.644096    337.90399  0.020900002 
    8380    771710.46    502.42635    108.16822    92.979867    90.545666    91.663789   -108.16822  0.020950002 
    8400    771789.68    502.06171    392.74189     92.98442    90.515539     91.69922   -392.74189  0.021000002 
    8420    772465.93    499.40953    397.78499    92.988974    90.547782    91.742392   -397.78499  0.021050002 
    8440    773060.76    502.15214   -439.95614    92.993528     90.54573    91.810623    439.95614  0.021100002 
    8460    773055.62    500.23574   -532.23402    92.998081    90.556579    91.794519    532.23402  0.021150002 
    8480    773272.79     498.6159   -120.99663    93.002635     90.62157    91.749963    120.99663  0.021200002 
    8500    773697.22     499.9807   -276.16922    93.007188    90.670802    91.745985    276.16922  0.021250002 
    8520    773155.05     498.9049    316.56119    93.011742    90.661824    91.686283   -316.56119  0.021300002 
    8540    773584.32    499.25837   -243.83639    93.016295    90.691454    91.702728    243.83639  0.021350002 
    8560    773766.09    500.79769   -134.49315    93.020849    90.727002    91.683848    134.49315  0.021400002 
    8580    773826.35    500.05523    138.16602    93.025403    90.687204    91.726737   -138.16602  0.021450002 
    8600    773824.34    498.48006   -59.388715    93.029956    90.706146    91.702855    59.388715  0.021500002 
    8620    773609.97    500.47438   -84.096727     93.03451    90.739819    91.638944    84.096727  0.021550002 
    8640    773684.76    498.77168   -214.35668    93.039063    90.713104    91.670307    214.35668  0.021600002 
    8660    774195.28    498.74043    28.388177    93.043617    90.683579    91.756171   -28.388177  0.021650002 
    8680    774478.86    497.91427   -292.87189    93.048171    90.655896    91.813317    292.87189  0.021700002 
    8700    773571.45    500.96198    649.97247    93.052724    90.554968    91.803462   -649.97247  0.021750002 
    8720    775124.72    498.39115   -347.91131    93.057278    90.630834    91.906297    347.91131  0.021800002 
    8740    775869.69    500.07651   -230.87882    93.061831    90.725979    91.893655    230.87882  0.021850002 
    8760    775524.83    499.59626    140.33668    93.066385    90.697121    91.877541   -140.33668  0.021900002 
    8780    775500.08    498.28617   -99.769027    93.070939    90.711567    91.855483    99.769027  0.021950002 
    8800    775187.49    500.29495   -562.47488    93.075492    90.703342    91.822292    562.47488  0.022000002 
    8820    774002.78    498.38752    591.09917    93.080046    90.614348    91.767512   -591.09917  0.022050002 
    8840    775106.95    500.38907   -323.54416    93.084599     90.62829    91.879794    323.54416  0.022100002 
    8860    774640.71    502.10698    434.49347    93.089153    90.562409    91.886831   -434.49347  0.022150002 
    8880    774787.61    501.40801    -330.4309    93.093707    90.592953    91.868775     330.4309  0.022200002 
    8900    774686.51    498.99947   -417.15687     93.09826    90.606918    91.838139    417.15687  0.022250002 
    8920    774730.28    502.79602   -150.16165    93.102814    90.607763    91.837979    150.16165  0.022300002 
    8940    774513.31    502.07105     277.7343    93.107367    90.597993    91.817668    -277.7343  0.022350002 
    8960    774576.04    502.33465   -70.884199    93.111921    90.532495    91.887044    70.884199  0.022400002 
    8980    774203.84     502.2734    161.83454    93.116475    90.501385    91.869968   -161.83454  0.022450002 
    9000    774699.13    498.75705   -255.12414    93.121028    90.590081    91.834245    255.12414  0.022500002 
    9020    773997.56    500.12136    122.78419    93.125582    90.561336    91.775715   -122.78419  0.022550002 
    9040    773856.06    499.24818   -84.321508    93.130135    90.515325    91.801089    84.321508  0.022600002 
    9060    772936.26    498.45171    193.26041    93.134689    90.534207     91.66837   -193.26041  0.022650002 
    9080    773467.21    498.32791   -88.107532    93.139243    90.605152    91.655031    88.107532  0.022700002 
    9100    774467.67    500.23655   -310.06216    93.143796    90.594735    91.779651    310.06216  0.022750002 
    9120    774669.47    498.31074   -41.009591     93.14835    90.592443      91.8014    41.009591  0.022800002 
    9140    774935.99    500.38554   -77.598669    93.152903    90.592455    91.828482    77.598669  0.022850002 
    9160    775065.24    498.37236     172.6494    93.157457     90.54365    91.888812    -172.6494  0.022900002 
    9180    775237.04    499.17812   -267.22233    93.162011    90.565931    91.882078    267.22233  0.022950002 
    9200    774798.89    499.63529    470.66979    93.166564     90.61589    91.775032   -470.66979  0.023000002 
    9220    774585.46    498.73625   -207.63595    93.171118    90.590609    91.770872    207.63595  0.023050002 
    9240    774060.07    497.25174   -475.58064    93.175671    90.568014    91.727021    475.58064  0.023100002 
    9260    774405.51    499.14359   -404.92191    93.180225     90.66307    91.667262    404.92191  0.023150002 
    9280    774804.75    499.70701   -141.81252    93.184779    90.649387    91.723882    141.81252  0.023200002 
    9300    774320.54    500.28767    164.10361    93.189332    90.607992    91.703957   -164.10361  0.023250002 
    9320    773899.97    499.07919    350.03765    93.193886    90.601007    91.656736   -350.03765  0.023300002 
    9340    773933.01    499.18882    97.097119    93.198439    90.590969    91.666327   -97.097119  0.023350002 
    9360    774091.06    499.67455   -195.58708    93.202993    90.588249     91.68332    195.58708  0.023400002 
    9380     774133.8    500.07907   -81.322135    93.207546    90.684652    91.586437    81.322135  0.023450002 
    9400     774647.8     499.2652    100.98721      93.2121    90.717203    91.609887   -100.98721  0.023500002 
    9420    774939.21    500.94333   -370.92295    93.216654    90.744545     91.61226    370.92295  0.023550002 
    9440    774123.05    498.59433    165.08619    93.221207    90.761681    91.494027   -165.08619  0.023600002 
    9460    774285.23    500.34935    267.92706    93.225761    90.849395    91.420375   -267.92706  0.023650002 
    9480    774481.42    498.58058    -354.3037    93.230314    90.841562    91.446958     354.3037  0.023700002 
    9500    774076.24      500.562    184.10643    93.234868    90.793415    91.443118   -184.10643  0.023750002 
    9520    774814.02    497.22949   -332.00254    93.239422    90.866145    91.452545    332.00254  0.023800002 
    9540    774497.84      500.652   -178.79079    93.243975    90.862288    91.414642    178.79079  0.023850002 
    9560     774501.6    497.79743    236.84593    93.248529    90.837737    91.435328   -236.84593  0.023900002 
    9580    775512.09    498.98091   -271.10542    93.253082    90.822386    91.565626    271.10542  0.023950002 
    9600    774697.02    499.67404    301.25569    93.257636    90.792523    91.495009   -301.25569  0.024000002 
    9620    775207.08    499.94997    156.58463     93.26219    90.793499    91.549794   -156.58463  0.024050002 
    9640    775755.65    501.04047   -152.04998    93.266743    90.848588    91.554555    152.04998  0.024100002 
    9660    775350.22    501.64149   -286.72701    93.271297    90.803085    91.548091    286.72701  0.024150002 
    9680    774431.08     500.1284    89.508748     93.27585    90.694807    91.544263   -89.508748  0.024200002 
    9700    774802.26    503.51793   -96.016933    93.280404    90.748501    91.529481    96.016933  0.024250002 
    9720    774238.41    500.43637    162.64531    93.284958    90.722123    91.484999   -162.64531  0.024300002 
    9740    774144.59     499.8679   -50.735575    93.289511      90.6867    91.505177    50.735575  0.024350002 
    9760    773955.75    500.64234    7.7306622    93.294065    90.604802    91.561079   -7.7306622  0.024400002 
    9780    773941.51    499.11659   -171.86082    93.298618    90.577957     91.58206    171.86082  0.024450002 
    9800    774233.23    500.81193    10.643442    93.303172    90.549552    91.640846   -10.643442  0.024500002 
    9820    774793.93    498.31594   -604.02116    93.307726    90.608771    91.642803    604.02116  0.024550002 
    9840    773541.84    499.01335    140.13047    93.312279    90.525047    91.574858   -140.13047  0.024600002 
    9860     774086.2    497.99813    -50.74898    93.316833    90.512761    91.647269     50.74898  0.024650002 
    9880    774281.16    499.59486    88.556823    93.321386    90.550346    91.627829   -88.556823  0.024700002 
    9900    773490.31    498.70373     286.0842     93.32594    90.544992    91.535187    -286.0842  0.024750002 
    9920    773499.56    497.82233   -141.20271    93.330494    90.535651    91.541258    141.20271  0.024800002 
    9940    773726.86    497.01651   -397.01854    93.335047    90.503329    91.596393    397.01854  0.024850002 
    9960    773002.96    497.70236    47.238942    93.339601     90.42765    91.582811   -47.238942  0.024900002 
    9980    773190.17    496.78424   -122.69208    93.344154    90.429874     91.59827    122.69208  0.024950002 
   10000    773054.32    499.31177   -168.87136    93.348708    90.451374    91.555941    168.87136  0.025000002 
   10020    772780.74    499.56127    294.72067    93.353262    90.464958    91.505334   -294.72067  0.025050002 
   10040     773506.3    497.93106   -435.56202    93.357815    90.497962    91.553379    435.56202  0.025100002 
   10060    772847.48    501.54505   -50.853048    93.362369     90.39967    91.570395    50.853048  0.025150002 
   10080    771983.93    499.77242    175.24681    93.366922    90.316769     91.54757   -175.24681  0.025200002 
   10100    771358.91    498.48972    139.53254    93.371476    90.305612    91.480291   -139.53254  0.025250002 
   10120    771805.58    498.76373    331.65653     93.37603    90.324651    91.509507   -331.65653  0.025300002 
   10140    772296.55    500.75613    -247.7535    93.380583    90.310699      91.5774     247.7535  0.025350002 
   10160    773355.41     500.3569   -446.94595    93.385137    90.405744    91.602082    446.94595  0.025400002 
   10180    773155.63    501.22051    419.76996     93.38969    90.357653    91.622692   -419.76996  0.025450002 
   10200    773818.88    500.92584    101.92623    93.394244    90.346814     91.70782   -101.92623  0.025500002 
   10220    774780.77    499.60541   -162.92331    93.398798    90.357475    91.806507    162.92331  0.025550002 
   10240     774199.5    500.47125   -148.06474    93.403351    90.302253    91.789254    148.06474  0.025600002 
   10260    773867.34    500.40763   -15.306257    93.407905    90.212726     91.83645    15.306257  0.025650002 
   10280    774715.19    499.70725   -340.98959    93.412458    90.242732    91.902015    340.98959  0.025700002 
   10300    773964.05    500.95729    186.58027    93.417012    90.209962    91.841785   -186.58027  0.025750002 
   10320    773696.48    500.79095   -454.91663    93.421565    90.197608    91.818133    454.91663  0.025800002 
   10340    773847.38    501.81111    111.95373    93.426119    90.268852    91.759088   -111.95373  0.025850002 
   10360    773615.38     501.2104     312.9353    93.430673    90.236025    91.760477    -312.9353  0.025900002 
   10380    774135.92    500.36186    252.52472    93.435226    90.224504     91.82947   -252.52472  0.025950002 
   10400    775271.83    498.94387   -88.915995     93.43978    90.253354    91.930336    88.915995  0.026000002 
   10420     775654.3    499.20603   -294.20625    93.444333    90.273567    91.950614    294.20625  0.026050002 
   10440    776121.64     499.4453   -192.21661    93.448887    90.308864    91.965573    192.21661  0.026100002 
   10460    776675.83    498.27195    92.429319    93.453441    90.368497     91.96603   -92.429319  0.026150002 
   10480    776136.18    499.92605    167.76248    93.457994    90.352393    91.914031   -167.76248  0.026200002 
   10500    775524.77    496.22808    53.688733    93.462548    90.333911     91.85594   -53.688733  0.026250002 
   10520    774840.19    498.98996    -44.78627    93.467101    90.288851    91.816184     44.78627  0.026300002 
   10540    774378.11    499.00074   -564.10508    93.471655    90.218637     91.82837    564.10508  0.026350002 
   10560    773681.88    497.55677   -168.99694    93.476209    90.220965    91.738972    168.99694  0.026400002 
   10580    774603.66    497.86236    -277.6914    93.480762    90.290275    91.773295     277.6914  0.026450002 
   10600    773990.68     498.8178    625.53917    93.485316    90.269108    91.717705   -625.53917  0.026500002 
   10620    773199.57    499.06077    480.81644    93.489869    90.193973    91.695819   -480.81644  0.026550002 
   10640    772602.34    500.32831   -279.85962    93.494423    90.132465    91.683052    279.85962  0.026600002 
   10660    772077.15    498.64344   -320.76353    93.498977    90.141216    91.607373    320.76353  0.026650002 
   10680     771917.1    499.00782   -49.343726     93.50353     90.16346    91.561329    49.343726  0.026700002 
   10700     772876.4    501.13889    112.56621    93.508084    90.195228    91.638365   -112.56621  0.026750002 
   10720       773038    499.52591     270.0258    93.512637     90.18012    91.668416    -270.0258  0.026800002 
   10740    773166.15    500.98818   -44.545037    93.517191    90.233107    91.625312    44.545037  0.026850002 
   10760    773628.83    500.70485   -339.27868    93.521745    90.330691    91.576642    339.27868  0.026900002 
   10780     773507.1     500.3267    278.60629    93.526298    90.397581    91.490026   -278.60629  0.026950002 
   10800    773523.16    499.92243   -25.958945    93.530852     90.42135    91.463422    25.958945  0.027000002 
   10820    773121.11    500.56886   -240.10147    93.535405    90.416292    91.416546    240.10147  0.027050002 
   10840     773552.6    499.74412   -241.31178    93.539959    90.421786    91.457557    241.31178  0.027100002 
   10860    773961.01    500.86311   -89.001213    93.544513    90.484014    91.438461    89.001213  0.027150002 
   10880    772522.31    501.27719    283.63058    93.549066    90.420226    91.328429   -283.63058  0.027200002 
   10900    772352.32    500.47289    175.91618     93.55362    90.413934    91.310242   -175.91618  0.027250002 
   10920    773284.87    501.99197   -258.19114    93.558173    90.381272    91.449078    258.19114  0.027300002 
   10940    773242.17    498.00433   -359.59813    93.562727    90.328023    91.493482    359.59813  0.027350002 
   10960    772844.11    502.40481    -182.6395    93.567281    90.326456    91.443517     182.6395  0.027400002 
   10980    772930.53    498.89208   -325.37698    93.571834    90.326331    91.449418    325.37698  0.027450002 
   11000     771895.6    500.48278    455.23966    93.576388    90.283708    91.365641   -455.23966  0.027500002 
   11020    772206.45    501.20984    235.31419    93.580941     90.28813    91.393509   -235.31419  0.027550002 
   11040    771484.77    500.06328    191.61784    93.585495    90.211916     91.38079   -191.61784  0.027600002 
   11060    769734.06     496.9539   -1.0921717    93.590049     90.17267    91.208665    1.0921717  0.027650002 
   11080    770290.78    499.30992   -369.63508    93.594602    90.202067    91.240447    369.63508  0.027700002 
   11100    771712.47    495.68519   -708.87912    93.599156    90.245947    91.359955    708.87912  0.027750002 
   11120     770362.4    497.43987    411.13523    93.603709    90.197885    91.244284   -411.13523  0.027800002 
   11140    770653.19    497.89477     222.4607    93.608263    90.207339    91.264719    -222.4607  0.027850002 
   11160    770388.45    497.32218     375.2676    93.612816    90.140682    91.296391    -375.2676  0.027900002 
   11180    770142.09    498.32125    -255.0717     93.61737    90.185132    91.217775     255.0717  0.027950002 
   11200    769703.43    498.30437   -518.74468    93.621924    90.125663    91.221537    518.74468  0.028000002 
   11220    770187.55    498.43354    -71.19333    93.626477    90.087833    91.312803     71.19333  0.028050002 
   11240    770744.14    499.27659   -83.191478    93.631031    90.157125    91.304119    83.191478  0.028100002 
   11260    771335.01    499.17178    108.22396    93.635584    90.181283    91.345196   -108.22396  0.028150002 
   11280    772566.45    498.75372    397.27231    93.640138    90.227244    91.439977   -397.27231  0.028200002 
   11300    773523.03     498.2231    78.928582    93.644692    90.274932    91.500384   -78.928582  0.028250002 
   11320    774009.33    500.66367   -356.31709    93.649245    90.316688    91.511129    356.31709  0.028300002 
   11340    774381.51    497.47392   -504.18108    93.653799    90.292269     91.57544    504.18108  0.028350002 
   11360    774257.59    500.15424   -276.75977    93.658352      90.2824    91.566341    276.75977  0.028400002 
   11380    773901.04    500.26311    71.150001    93.662906     90.29315    91.508829   -71.150001  0.028450002 
   11400    773651.23    501.69946    480.53747     93.66746    90.230607    91.538248   -480.53747  0.028500002 
   11420    773452.89    501.38089   -10.788049    93.672013    90.167651    91.574226    10.788049  0.028550002 
   11440    773115.67    498.87087    -389.9645    93.676567    90.117072    91.581223     389.9645  0.028600002 
   11460    772207.47    498.81246   -46.064227     93.68112     90.05036    91.536957    46.064227  0.028650002 
   11480     772333.6    500.64274   -310.06898    93.685674    90.034613     91.56347    310.06898  0.028700002 
   11500    772246.44    500.18958    139.96216    93.690228    89.991662    91.592381   -139.96216  0.028750002 
   11520     771811.4    500.58748    64.145166    93.694781    89.971436    91.556912   -64.145166  0.028800002 
   11540    771576.37     502.4785    253.83935    93.699335    90.040328    91.454555   -253.83935  0.028850002 
   11560    772322.03    500.43104   -141.26914    93.703888    90.147789     91.42937    141.26914  0.028900002 
   11580    772048.13    499.12416   -91.744328    93.708442    90.113405    91.427377    91.744328  0.028950002 
   11600     772363.3     501.7416   -479.97509    93.712996    90.144899    91.428302    479.97509  0.029000002 
   11620    773103.48    499.37655    -323.0951    93.717549    90.212673    91.442724     323.0951  0.029050002 
   11640    773958.74    499.62136    261.99628    93.722103    90.285919    91.465174   -261.99628  0.029100002 
   11660    774308.47     501.5039    562.42092    93.726656    90.308666    91.479011   -562.42092  0.029150002 
   11680    774230.33    498.84655    172.77998     93.73121    90.356218      91.4172   -172.77998  0.029200002 
   11700    774156.18    498.50834   -1.8919841    93.735764     90.35217    91.408098    1.8919841  0.029250002 
   11720    774486.08    498.39996   -577.97102    93.740317    90.422364    91.371622    577.97102  0.029300002 
   11740    773661.19    495.84596   -258.10011    93.744871    90.371453    91.321289    258.10011  0.029350002 
   11760     773166.7    498.23503    228.42309    93.749424    90.279998    91.350934   -228.42309  0.029400002 
   11780    773676.56     498.8688   -13.061657    93.753978    90.264255    91.422677    13.061657  0.029450002 
   11800    773777.79    497.36593    30.061832    93.758532    90.286528    91.407643   -30.061832  0.029500002 
   11820    774231.04    499.51825   -279.74077    93.763085    90.272539    91.470917    279.74077  0.029550002 
   11840    774312.86    499.24386   -293.52386    93.767639    90.251918    91.497041    293.52386  0.029600002 
   11860    774058.04    497.85312    142.97792    93.772192    90.279556    91.434489   -142.97792  0.029650002 
   11880    774502.12     497.9814   -52.281641    93.776746    90.265195    91.497058    52.281641  0.029700002 
   11900    774619.92    499.74436    32.985958      93.7813    90.222068    91.550271   -32.985958  0.029750002 
   11920    774574.51    500.37388    84.206138    93.785853    90.197535    91.565359   -84.206138  0.029800002 
   11940    774445.22    496.88511    168.58489    93.790407    90.203556    91.539518   -168.58489  0.029850002 
   11960    774721.76    501.02776    35.858083     93.79496    90.200734    91.570624   -35.858083  0.029900002 
   11980     775389.3    498.67543   -127.75117    93.799514    90.254887    91.590091    127.75117  0.029950002 
   12000    776196.46    499.14383   -316.21206    93.804068    90.316143    91.618802    316.21206  0.030000002 
   12020    774790.87    500.35428    513.07774    93.808621    90.227554    91.538239   -513.07774  0.030050002 
   12040    774744.55     503.2508   -258.04625    93.813175    90.133736    91.623594    258.04625  0.030100002 
   12060    774533.54    501.66659    398.22745    93.817728    90.136517    91.591367   -398.22745  0.030150002 
   12080    775472.84    501.07605   -326.48128    93.822282    90.258147    91.574422    326.48128  0.030200002 
   12100    774896.77    502.06938    162.32846    93.826835    90.263534    91.496493   -162.32846  0.030250002 
   12120    773684.75    500.27383    156.77962    93.831389    90.151419    91.462554   -156.77962  0.030300002 
   12140    773455.23    501.12593   -328.46571    93.835943    90.165849    91.416351    328.46571  0.030350002 
   12160    774158.45    498.01011   -557.98386    93.840496    90.274363    91.385045    557.98386  0.030400002 
   12180    773658.02    498.58232   -19.118266     93.84505    90.279786    91.316056    19.118266  0.030450002 
   12200    773581.75    500.10559   -84.129598    93.849603    90.258533    91.324121    84.129598  0.030500002 
   12220    773976.85     499.7859    31.858763    93.854157    90.363321     91.26038   -31.858763  0.030550002 
   12240    774324.22    500.69421   -110.80123    93.858711    90.417665    91.242038    110.80123  0.030600002 
   12260    774458.18    499.79178    276.19089    93.863264    90.436577    91.234311   -276.19089  0.030650002 
   12280    774903.41    498.19644    122.46752    93.867818    90.478552    91.239985   -122.46752  0.030700002 
   12300    774482.65    501.29055   -85.753242    93.872371    90.448781    91.216033    85.753242  0.030750002 
   12320    775155.16     498.5369   -247.30579    93.876925    90.462064    91.277407    247.30579  0.030800002 
   12340    775834.61     498.9448   -337.31858    93.881479    90.484333    91.330501    337.31858  0.030850002 
   12360    774922.94    498.56619   -310.54468    93.886032      90.3701    91.334061    310.54468  0.030900002 
   12380    773661.01    498.87533   -9.7182722    93.890586    90.308395    91.243206    9.7182722  0.030950002 
   12400    773832.76    499.04861    279.19827    93.895139    90.350824    91.216181   -279.19827  0.031000002 
   12420    773728.71    498.87085    263.23616    93.899693     90.24793    91.303471   -263.23616  0.031050002 
   12440    773315.53    499.05286   -115.99477    93.904247    90.174905    91.324185    115.99477  0.031100002 
   12460    773588.43    496.86759   -158.85551      93.9088    90.158098    91.369012    158.85551  0.031150002 
   12480    773909.68     499.3903   -282.83553    93.913354    90.153091      91.4076    282.83553  0.031200002 
   12500    773509.78    498.08074    88.691126    93.917907    90.139622    91.369589   -88.691126  0.031250002 
   12520    773676.36     499.0382    330.49746    93.922461    90.191289    91.332484   -330.49746  0.031300002 
   12540    773415.06    499.57959   -4.1695661    93.927015    90.179394    91.309254    4.1695661  0.031350002 
   12560    772332.22    498.78024   -222.14866    93.931568     90.11914    91.237955    222.14866  0.031400002 
   12580    772039.24    501.75739   -179.99587    93.936122    90.206957    91.110141    179.99587  0.031450002 
   12600    772238.33    501.29167     -369.572    93.940675    90.262607    91.073034      369.572  0.031500002 
   12620    772086.38    501.22379    69.410725    93.945229    90.304756    91.008202   -69.410725  0.031550002 
   12640    771583.58    500.60912    60.838929    93.949783    90.332555    90.916541   -60.838929  0.031600002 
   12660    771336.81    500.73177    273.52992    93.954336     90.38295    90.832385   -273.52992  0.031650002 
   12680    772970.56    499.98806   -297.74957     93.95889    90.459427    90.943412    297.74957  0.031700002 
   12700    774223.28    501.93543   -220.02803    93.963443    90.544214     91.00109    220.02803  0.031750002 
   12720    774496.57    499.13532   -380.59432    93.967997    90.536101    91.036958    380.59432  0.031800002 
   12740    774286.47    501.31552    32.057797    93.972551    90.484114    91.060141   -32.057797  0.031850002 
   12760    774644.54    501.04665   -228.30505    93.977104    90.484795    91.097153    228.30505  0.031900002 
   12780    774212.92    499.86767    578.36402    93.981658    90.468792    91.058087   -578.36402  0.031950002 
   12800    774817.53    501.72089   -216.98119    93.986211    90.546305    91.046774    216.98119  0.032000002 
   12820    774775.08    499.38669   -133.03381    93.990765    90.584073    90.999417    133.03381  0.032050002 
   12840    774676.38    499.27211   -106.53432    93.995319    90.631871    90.935435    106.53432  0.032100002 
   12860     773888.7    498.54595   -37.699492    93.999872    90.603001    90.867516    37.699492  0.032150002 
   12880     774545.2    499.40336   -328.07589    94.004426    90.644515    90.898546    328.07589  0.032200002 
   12900    773979.51     497.6382    28.276875    94.008979    90.630162    90.842143   -28.276875  0.032250002 
   12920    772946.42    500.56578    177.46228    94.013533    90.587574    90.759143   -177.46228  0.032300002 
   12940    772615.59    497.79639    109.80928    94.018086     90.55656    90.746971   -109.80928  0.032350002 
   12960     772571.4    499.56108   -52.775401     94.02264    90.566784    90.727144    52.775401  0.032400002 
   12980    771984.88     497.9174   -357.50634    94.027194    90.564399    90.656262    357.50634  0.032450002 
   13000    772203.71    499.09798   -85.291035    94.031747    90.524637    90.717398    85.291035  0.032500002 
   13020    772469.81    498.12895   -293.48243    94.036301    90.508011    90.760934    293.48243  0.032550002 
   13040    771632.49    498.93451    188.61794    94.040854    90.455843    90.710448   -188.61794  0.032600002 
[...]
  396740    811607.54    498.85573   -98.359781    181.40158    65.464738    68.343555    98.359781      0.99185 
  396760    811515.81    500.59778   -216.20846    181.40614    65.489986    68.307771    216.20846       0.9919 
  396780    811815.35    497.74182   -374.00794    181.41069    65.458563     68.36407    374.00794      0.99195 
  396800    811798.37    499.49248    72.553849    181.41525    65.425019    68.395973   -72.553849        0.992 
  396820     812009.3    501.13127   -89.216039     181.4198    65.422885     68.41426    89.216039      0.99205 
  396840     812824.4    498.43367    42.106963    181.42435    65.470603    68.431303   -42.106963       0.9921 
  396860     814097.7    499.82619   -383.40175    181.42891    65.508491    68.497143    383.40175      0.99215 
  396880    814238.25    499.89286   -109.93741    181.43346    65.542787    68.471401    109.93741       0.9922 
  396900    814307.75    499.48395   -320.93229    181.43801    65.511483    68.508247    320.93229      0.99225 
  396920    813754.84    502.17181    140.41301    181.44257    65.464355    68.509297   -140.41301       0.9923 
  396940    813570.79    500.74098    142.83493    181.44712    65.463666    68.492804   -142.83493      0.99235 
  396960    814820.28    503.15522   -113.84529    181.45167     65.54647    68.509617    113.84529       0.9924 
  396980    815174.22    502.22406   -276.36843    181.45623     65.60929    68.472032    276.36843      0.99245 
  397000    814338.79    501.09216   -413.61406    181.46078    65.634053    68.374336    413.61406       0.9925 
  397020    814292.96    501.65436   -88.786501    181.46533    65.658541    68.343274    88.786501      0.99255 
  397040    814478.52    500.95413    144.50876    181.46989    65.650707     68.36529   -144.50876       0.9926 
  397060    814332.02    500.21181   -177.50154    181.47444    65.647799    68.354305    177.50154      0.99265 
  397080    813766.27    499.30467    95.992736      181.479    65.614163    68.340119   -95.992736       0.9927 
  397100    813133.61     498.7878   -128.62256    181.48355    65.594571    68.305669    128.62256      0.99275 
  397120    813280.64    500.82849   -573.78666     181.4881    65.614602    68.295451    573.78666       0.9928 
  397140    813813.39    497.49022   -647.31871    181.49266    65.613579    68.339539    647.31871      0.99285 
  397160    812496.82    497.35806   -47.870026    181.49721    65.534367    68.309737    47.870026       0.9929 
  397180    811660.45    500.75139    181.32186    181.50176    65.499108     68.27444   -181.32186      0.99295 
  397200    811914.42    499.01715    358.78876    181.50632    65.516496    68.275966   -358.78876        0.993 
  397220    812028.79    496.65353    125.97448    181.51087    65.505826    68.294992   -125.97448      0.99305 
  397240    812481.34    499.13171   -706.55506    181.51542    65.520693    68.315834    706.55506       0.9931 
  397260    812081.22    496.84887   -631.34279    181.51998    65.520737    68.280433    631.34279      0.99315 
  397280    811219.39    496.73523    -194.9133    181.52453    65.458864    68.270728     194.9133       0.9932 
  397300    811105.76    499.45888   -75.434253    181.52908    65.470338     68.24749    75.434253      0.99325 
  397320    811460.26    499.85889    20.208427    181.53364    65.508339    68.235999   -20.208427       0.9933 
  397340    811248.88    498.80362    208.82049    181.53819    65.504983    68.220009   -208.82049      0.99335 
  397360    811286.86    499.97914   -73.990583    181.54275    65.481938    68.245499    73.990583       0.9934 
  397380    811041.62    501.00552    69.627134     181.5473    65.470607    68.234966   -69.627134      0.99345 
  397400    811289.23    497.96129   -330.49219    181.55185    65.422941    68.303815    330.49219       0.9935 
  397420    812048.39    499.45084   -124.05544    181.55641    65.474636    68.312038    124.05544      0.99355 
  397440    812848.71     500.1402   -378.34507    181.56096    65.540164    68.309282    378.34507       0.9936 
  397460    812510.68    501.69749    209.43144    181.56551    65.477975    68.344013   -209.43144      0.99365 
  397480    813585.69    500.50303   -143.27409    181.57007     65.52035    68.388463    143.27409       0.9937 
  397500    813991.12    501.00538   -482.75476    181.57462    65.538656    68.401715    482.75476      0.99375 
  397520    814321.94    501.00821   -339.24506    181.57917    65.520489    68.446772    339.24506       0.9938 
  397540     814819.1    499.61922   -330.12017    181.58373    65.544724     68.46152    330.12017      0.99385 
  397560       815478    499.94289   -242.68045    181.58828    65.572773    68.485855    242.68045       0.9939 
  397580    815071.71    498.72164    155.21375    181.59284     65.51067    68.514906   -155.21375      0.99395 
  397600    815328.35    500.19497   -169.79557    181.59739    65.486879    68.559659    169.79557        0.994 
  397620    815454.81    501.08355    149.08933    181.60194    65.471488    68.584693   -149.08933      0.99405 
  397640    816395.44    499.11533   -483.30053     181.6065    65.509489    68.622254    483.30053       0.9941 
  397660    816321.41    501.33434   -324.76623    181.61105    65.501797    68.622369    324.76623      0.99415 
  397680    815864.12    499.15356     231.5228     181.6156    65.444331    68.642429    -231.5228       0.9942 
  397700    816453.79    501.29482   -359.64281    181.62016    65.455381    68.678723    359.64281      0.99425 
  397720    816608.87    500.35208   -88.037163    181.62471     65.45412    68.691369    88.037163       0.9943 
  397740    816249.16    501.72519   -2.7138174    181.62926    65.451857    68.661764    2.7138174      0.99435 
  397760     815889.8    501.65745   -202.38709    181.63382    65.473307     68.60733    202.38709       0.9944 
  397780    815734.75    499.62019   -92.575335    181.63837    65.457572     68.60906    92.575335      0.99445 
  397800    814077.55    502.38753    118.95902    181.64292    65.388097     68.54071   -118.95902       0.9945 
  397820    813969.91     500.1973   -397.94125    181.64748    65.438334    68.477318    397.94125      0.99455 
  397840    813385.58    498.75293   -530.86969    181.65203    65.449057    68.415233    530.86969       0.9946 
  397860    811986.19    500.85754   -131.86468    181.65659    65.373173    68.375093    131.86468      0.99465 
  397880    811920.75    500.73026   -41.573405    181.66114    65.391359    68.348856    41.573405       0.9947 
  397900    813318.56     499.9946    50.622364    181.66569    65.472745    68.379704   -50.622364      0.99475 
  397920    813606.17    499.27394    222.30372    181.67025    65.439127     68.43731   -222.30372       0.9948 
  397940    813221.49    498.71939   -566.45829     181.6748    65.435807    68.406709    566.45829      0.99485 
  397960    812117.15    498.68099   -390.26423    181.67935    65.372969    68.377764    390.26423       0.9949 
  397980    811792.51    499.17275    91.159668    181.68391    65.282727    68.443198   -91.159668      0.99495 
  398000    812146.58    502.48332   -209.34964    181.68846    65.247081    68.508741    209.34964        0.995 
  398020    812007.58    499.44547    23.108451    181.69301    65.201098    68.543606   -23.108451      0.99505 
  398040    812002.95    502.02579   -423.01425    181.69757    65.184915    68.558513    423.01425       0.9951 
  398060    812601.46     499.9434   -287.78987    181.70212     65.20588    68.585268    287.78987      0.99515 
  398080    813242.77    500.20117    147.57381    181.70668     65.21805    68.624867   -147.57381       0.9952 
  398100    813333.42    499.41684    -110.4569    181.71123    65.234765    68.613212     110.4569      0.99525 
  398120    812942.77     499.4789   -74.833837    181.71578      65.2305    68.583022    74.833837       0.9953 
  398140    813158.84    499.82883   -404.99686    181.72034    65.246788    68.582407    404.99686      0.99535 
  398160       813772    499.84056    -442.6695    181.72489     65.22594    68.654338     442.6695       0.9954 
  398180    813235.18    501.35324   -183.90961    181.72944    65.214862    68.618984    183.90961      0.99545 
  398200    812335.73    498.85621    697.95768      181.734    65.161875    68.597108   -697.95768       0.9955 
  398220    813730.38    499.55883   -471.49331    181.73855    65.211054    68.661336    471.49331      0.99555 
  398240    814050.68    498.75476    165.55537     181.7431    65.228584    68.668182   -165.55537       0.9956 
  398260    813880.12    499.04145   -154.57152    181.74766    65.246582    68.633138    154.57152      0.99565 
  398280    814223.73    500.84807   -512.14083    181.75221    65.307463    68.596387    512.14083       0.9957 
  398300    814315.43     501.3261    67.268012    181.75676    65.328113    68.580708   -67.268012      0.99575 
  398320    814762.36    499.39741    24.667179    181.76132    65.350803    68.592805   -24.667179       0.9958 
  398340     814417.6      502.003   -71.887864    181.76587    65.320886    68.593464    71.887864      0.99585 
  398360    813655.31    498.95458    392.57494    181.77043    65.327418    68.520693   -392.57494       0.9959 
  398380    814719.64    499.97929   -539.08608    181.77498    65.379106    68.554364    539.08608      0.99595 
  398400    814902.53     497.9346   -650.41092    181.77953    65.404139    68.541791    650.41092        0.996 
  398420    813748.89    498.17276  -0.85705713    181.78409    65.448328    68.396832   0.85705713      0.99605 
  398440    812856.96    501.74164    163.15775    181.78864    65.464559    68.303214   -163.15775       0.9961 
  398460    812945.66    497.14877     52.67483    181.79319    65.479873    68.292981    -52.67483      0.99615 
  398480    813339.43    500.20489   -691.12528    181.79775    65.517314    68.285304    691.12528       0.9962 
  398500    812535.56    499.84714    224.18649     181.8023    65.522153    68.211066   -224.18649      0.99625 
  398520    812985.28    499.83454   -177.25124    181.80685    65.537304    68.231333    177.25124       0.9963 
  398540    812856.41    501.58436    115.20973    181.81141      65.5375    68.218605   -115.20973      0.99635 
  398560    813404.81    500.29987   -353.52747    181.81596    65.557056    68.242557    353.52747       0.9964 
  398580    813412.36    500.90054   -238.48389    181.82052    65.540785    68.258423    238.48389      0.99645 
  398600    812684.38    501.02367    680.85786    181.82507    65.520479     68.21676   -680.85786       0.9965 
  398620    813518.68    500.07641   -343.16763    181.82962    65.572072    68.231353    343.16763      0.99655 
  398640    814403.28    501.27558   -738.75899    181.83418    65.624411     68.24936    738.75899       0.9966 
  398660    814205.14    499.99979   -499.31662    181.83873    65.608437    68.247659    499.31662      0.99665 
  398680    813457.46      502.162    176.51045    181.84328    65.620924    68.170305   -176.51045       0.9967 
  398700    813447.74    501.38531    205.21251    181.84784    65.598367    68.191224   -205.21251      0.99675 
  398720    813389.34     502.3055   -224.70625    181.85239    65.562848    68.221561    224.70625       0.9968 
  398740    813174.98    501.53491   -743.14836    181.85694    65.544894    68.220555    743.14836      0.99685 
  398760    812018.21    501.64552   -12.581992     181.8615    65.490134    68.178764    12.581992       0.9969 
  398780    811395.35    502.34922    423.44459    181.86605    65.435553    68.181586   -423.44459      0.99695 
  398800    811689.52    503.13412    88.076679     181.8706    65.415999    68.224985   -88.076679        0.997 
  398820    812519.08    500.82638   -79.516262    181.87516    65.477905    68.228435    79.516262      0.99705 
  398840    812414.67    499.66833   -459.26839    181.87971    65.471416    68.224721    459.26839       0.9971 
  398860    811146.29    498.50001   -281.41437    181.88427    65.429482    68.160156    281.41437      0.99715 
  398880    811154.94    497.87618   -82.308138    181.88882    65.434088    68.154378    82.308138       0.9972 
  398900       810878    498.96914    -119.3347    181.89337    65.453274    68.109433     119.3347      0.99725 
  398920    810241.98    498.92136   -208.87779    181.89793    65.429933    68.078584    208.87779       0.9973 
  398940    810789.12    501.39674   -75.510405    181.90248    65.420757    68.132406    75.510405      0.99735 
  398960    810968.59    500.75981   -162.73883    181.90703    65.420789    68.145748    162.73883       0.9974 
  398980    810919.57     500.8593    430.97427    181.91159    65.411788      68.1493   -430.97427      0.99745 
  399000    812503.89    499.30576   -212.69217    181.91614     65.49053     68.19864    212.69217       0.9975 
  399020    812093.88     499.2431   -484.45071    181.92069     65.53229    68.119083    484.45071      0.99755 
  399040    811314.33    500.46729    -214.1429    181.92525    65.520944    68.063774     214.1429       0.9976 
  399060    812093.23     499.7487   -84.249327     181.9298    65.555139    68.091876    84.249327      0.99765 
  399080    811989.32    500.96971    212.20621    181.93435     65.58751    68.047858   -212.20621       0.9977 
  399100    811593.93    498.63108     206.9531    181.93891     65.61401    67.985551    -206.9531      0.99775 
  399120    811888.61    499.66647   -211.82202    181.94346    65.670223    67.950319    211.82202       0.9978 
  399140    812962.09    499.75107   -672.76629    181.94802    65.760581    67.944973    672.76629      0.99785 
  399160    812757.35    500.01899   -40.049593    181.95257    65.767253    67.919271    40.049593       0.9979 
  399180    812911.87     500.9153   -111.34043    181.95712    65.765657    67.932131    111.34043      0.99795 
  399200     812896.1    502.40967   -27.812998    181.96168    65.771949    67.922615    27.812998        0.998 
  399220     812605.2     501.2573   -46.199122    181.96623    65.736986    67.932721    46.199122      0.99805 
  399240     812304.3    502.02698    565.02316    181.97078    65.707437    67.936405   -565.02316       0.9981 
  399260    814082.86    499.76385   -444.04082    181.97534    65.768826    68.019899    444.04082      0.99815 
  399280    814847.59    500.62288   -459.57027    181.97989    65.775145    68.075552    459.57027       0.9982 
  399300    814721.77    502.82786   -365.22274    181.98444    65.759168    68.079874    365.22274      0.99825 
  399320     814386.9     502.6275    178.01451      181.989    65.780754    68.027859   -178.01451       0.9983 
  399340    814650.59    502.24388    146.14836    181.99355    65.789507    68.039128   -146.14836      0.99835 
  399360    814324.78    502.80156    152.40139    181.99811    65.762069    68.038592   -152.40139       0.9984 
  399380    815131.86    501.52852   -487.22067    182.00266    65.786317    68.079219    487.22067      0.99845 
  399400    815643.66    502.78806   -567.90599    182.00721    65.781914    68.124819    567.90599       0.9985 
  399420    815468.92    499.97982    315.63135    182.01177    65.766375    68.124612   -315.63135      0.99855 
  399440    816236.49     500.7861   -372.63195    182.01632    65.844537    68.106087    372.63195       0.9986 
  399460     816430.9    500.26024   -329.14744    182.02087    65.884078    68.079721    329.14744      0.99865 
  399480    815889.24    500.11216   -463.08175    182.02543    65.829941      68.0888    463.08175       0.9987 
  399500    814965.33    498.28514    92.070883    182.02998    65.750972    68.091677   -92.070883      0.99875 
  399520    814236.23    502.06607    464.91055    182.03453    65.723125    68.057883   -464.91055       0.9988 
  399540    813381.97    499.53238     39.39309    182.03909    65.702806    68.005802    -39.39309      0.99885 
  399560     813805.7    498.01813   -593.03495    182.04364    65.724427    68.017147    593.03495       0.9989 
  399580    814857.89    499.47819   -472.42142    182.04819    65.753916     68.07284    472.42142      0.99895 
  399600    813950.48    499.21866   -304.75794    182.05275    65.716674     68.03387    304.75794        0.999 
  399620    812127.73    499.71893    506.30459     182.0573    65.601532    67.998958   -506.30459      0.99905 
  399640    813027.38    501.78024   -260.08368    182.06186    65.642293    68.030312    260.08368       0.9991 
  399660    813233.93      498.414   -387.55619    182.06641    65.681469    68.005307    387.55619      0.99915 
  399680    812906.28    502.59006    318.57123    182.07096    65.659565    67.998884   -318.57123       0.9992 
  399700     813780.7    499.92466   -277.78908    182.07552    65.672118    68.057315    277.78908      0.99925 
  399720     812971.6    498.62847    -384.0563    182.08007    65.682751    67.976943     384.0563       0.9993 
  399740    812055.37    499.36308   -178.90727    182.08462    65.675168    67.906473    178.90727      0.99935 
  399760    812242.35    501.22384   -144.62215    182.08918    65.679212    67.916229    144.62215       0.9994 
  399780    812097.67    500.34213    203.96712    182.09373    65.629982    67.953368   -203.96712      0.99945 
  399800    813113.04    501.97994     47.94767    182.09828    65.625729    68.041038    -47.94767       0.9995 
  399820    814198.62    499.72154   -178.63875    182.10284    65.660488     68.09411    178.63875      0.99955 
  399840    814988.75    499.64525   -621.87907    182.10739    65.676373    68.142001    621.87907       0.9996 
  399860    814504.52    501.94569   -125.11137    182.11195    65.632973    68.144842    125.11137      0.99965 
  399880    813969.75    500.12339    171.12144     182.1165    65.567804    68.166082   -171.12144       0.9997 
  399900    814471.45    501.92257   -324.11483    182.12105    65.598542    68.174432    324.11483      0.99975 
  399920    814659.97    500.25826   -304.82872    182.12561    65.578687    68.209152    304.82872       0.9998 
  399940     815058.6    500.57941   -90.088088    182.13016    65.566126    68.253896    90.088088      0.99985 
  399960    815390.54    503.48473    54.887602    182.13471    65.595653     68.24925   -54.887602       0.9999 
  399980    815242.29    504.59783    59.039036    182.13927    65.586105    68.245069   -59.039036      0.99995 
  400000     815361.3    503.19803   -64.890787    182.14382     65.57838    68.261365    64.890787            1 
Loop time of 25162.5 on 64 procs for 400000 steps with 72040 atoms

Performance: 1.373 ns/day, 17.474 hours/ns, 15.897 timesteps/s
99.6% CPU use with 64 MPI tasks x 1 OpenMP threads

MPI task timing breakdown:
Section |  min time  |  avg time  |  max time  |%varavg| %total
---------------------------------------------------------------
Pair    | 7408.4     | 8323.6     | 9100.8     | 453.2 | 33.08
Bond    | 453.94     | 499.66     | 564.91     |  91.8 |  1.99
Kspace  | 1551.2     | 2358.9     | 3296.3     | 884.9 |  9.37
Neigh   | 13156      | 13174      | 13197      |  12.9 | 52.36
Comm    | 610.49     | 645.36     | 671.99     |  79.1 |  2.56
Output  | 4.9114     | 5.0067     | 5.2283     |   1.9 |  0.02
Modify  | 121.3      | 130.23     | 141.38     |  43.5 |  0.52
Other   |            | 25.75      |            |       |  0.10

Nlocal:        1125.62 ave        1230 max         970 min
Histogram: 1 2 3 3 8 15 14 5 10 3
Nghost:        15170.5 ave       15845 max       14587 min
Histogram: 3 7 8 7 12 7 10 4 4 2
Neighs:       855621.0 ave      968098 max      670818 min
Histogram: 1 1 2 2 9 16 13 6 7 7

Total # of neighbors = 54759734
Ave neighs/atom = 760.12957
Ave special neighs/atom = 5.9972238
Neighbor list builds = 400000
Dangerous builds not checked
Total wall time: 6:59:26
