LAMMPS (29 Oct 2020)
OMP_NUM_THREADS environment is not set. Defaulting to 1 thread. (../comm.cpp:94)
  using 1 OpenMP thread(s) per MPI task
####################################################
#    This program is free software: you can redistribute it and/or modify
#    it under the terms of the GNU General Public License as published by
#    the Free Software Foundation, either version 3 of the License, or
#    (at your option) any later version.
#
#    This program is distributed in the hope that it will be useful,
#    but WITHOUT ANY WARRANTY; without even the implied warranty of
#    MERCHANTABILITY or FITNESS FOR A PARTICULAR PURPOSE.  See the
#    GNU General Public License for more details.


units		real        ## defines the units style used herein. More information: https://docs.lammps.org/units.html
atom_style	full        ## defines the atom style used herein. More information: https://docs.lammps.org/atom_style.html

# Styles
pair_style      lj/cut/coul/long 15.0 10.0      ## sets the formula(s) LAMMPS uses to compute pairwise interactions; here, lennard-jones (LJ) with long-range Coulomb interaction. More: https://docs.lammps.org/pair_lj_cut_coul.html
pair_modify     shift no                        ## the shift keyword determines whether a Lennard-Jones potential is shifted at its cutoff to 0.0. More: https://docs.lammps.org/pair_modify.html
kspace_style    pppm 1.0e-4                     ## defines a long-range solver for LAMMPS to compute long-range Coulombic interactions. Note: requires use of a matching pair style, i.e. PPPM with coul/long. More: https://docs.lammps.org/kspace_style.html
bond_style      harmonic                        ## defined based off the forcefield used to construct the system; models the atoms' interactions
angle_style     harmonic
dihedral_style  opls
improper_style  cvff
special_bonds   lj 0 0 1 coul 0 0 1

read_data       500K_PMP.lmps      ## input lammps datafile, equilibriated until structure nears experimental properties
Reading data file ...
  orthogonal box = (79.464045 79.464045 79.464045) to (170.53596 170.53596 170.53596)
  4 by 4 by 4 MPI processor grid
  reading atoms ...
  72040 atoms
  reading velocities ...
  72040 velocities
  scanning bonds ...
  2 = max bonds/atom
  scanning angles ...
  6 = max angles/atom
  scanning dihedrals ...
  15 = max dihedrals/atom
  reading bonds ...
  72020 bonds
  reading angles ...
  143880 angles
  reading dihedrals ...
  215640 dihedrals
Finding 1-2 1-3 1-4 neighbors ...
  special bond factors lj:    0.0      0.0      1.0     
  special bond factors coul:  0.0      0.0      1.0     
     4 = max # of 1-2 neighbors
     9 = max # of 1-3 neighbors
    13 = max # of special neighbors
  special bonds CPU = 1.648 seconds
  read_data CPU = 3.709 seconds

dielectric      1.0
neighbor    	1.0 bin
neigh_modify	delay 0 every 1 check no        ## this is to make sure that the neighbor list is updated every timestep, and the atoms don't get lost as the system is being deformed ##

timestep	    1.0                             ## unit = fs, per "real" unit style
run_style       verlet                          ## defines algorithm used for simulation computation; verlet integration is a numerical method used to integrate Newton's equations of motion.

variable stress equal press*-1                         ## computes stress as the negative of press values
variable engStrain equal (lx-91.07191)/91.07191      ## computes engineering strain; lx_0 must be found and inputted manually (for now)

thermo		    20                                                               ## output log data (headers in thermo_style), recorded at every timestep in numList.txt
thermo_style    custom step vol temp press lx ly lz v_stress v_engStrain         ## data headers of output log file. More: https://docs.lammps.org/thermo_style.html

################# Deformation ##################

fix 1 all npt temp 500 500 100 y 1 1 100.0 z 1 1 100.0      ## stress normal to the x direction can vary; external pressure (y and z) = 1atm ##

fix 2 all deform 1 x scale 2.0 remap x                      ## sets a uniaxial (x-direction) deformation in motion, scaling a set amount (here, 4.0x) the initial length


################# Dumping ##################

reset_timestep 0

dump dump2 all custom 2000 sim.lammpstrj id mol type q xs ys zs ix iy iz

restart 4000 PMP.restart

run 		40000              ## this depends on the overall strain rate, where strain rate = deformScale / runTimeSteps (consider units!)
PPPM initialization ...
  using 12-bit tables for long-range coulomb (../kspace.cpp:328)
  G vector (1/distance) = 0.20213441
  grid = 24 24 24
  stencil order = 5
  estimated absolute RMS force accuracy = 0.023305294
  estimated relative force accuracy = 7.0183201e-05
  using double precision FFTW3
  3d grid and FFT values/proc = 1331 216
Neighbor list info ...
  update every 1 steps, delay 0 steps, check no
  max neighbors/atom: 2000, page size: 100000
  master list distance cutoff = 16
  ghost atom cutoff = 16
  binsize = 8, bins = 12 12 12
  1 neighbor lists, perpetual/occasional/extra = 1 0 0
  (1) pair lj/cut/coul/long, perpetual
      attributes: half, newton on
      pair build: half/bin/newton
      stencil: half/bin/3d/newton
      bin: standard
Per MPI rank memory allocation (min/avg/max) = 18.62 | 19.32 | 19.78 Mbytes
Step Volume Temp Press Lx Ly Lz v_stress v_engStrain 
       0    755358.88    501.97846    4608.9964     91.07191     91.07191     91.07191   -4608.9964 2.1543697e-09 
      20    761569.02    509.38516   -265.39856    91.117446     91.44449    91.400841    265.39856 0.00050000216 
      40    763257.59    506.79499   -525.62926    91.162982    91.540277    91.461936    525.62926 0.0010000022 
      60     761139.2    505.97692   -523.12844    91.208518    91.429765    91.272739    523.12844 0.0015000022 
      80     760822.2    506.03581   -458.66789    91.254054    91.410851    91.208067    458.66789 0.0020000022 
     100    760934.35    507.76435   -385.46989     91.29959    91.401818    91.185027    385.46989 0.0025000022 
     120    759944.79    510.11118    1377.1933    91.345126    91.294754    91.127791   -1377.1933 0.0030000022 
     140    762088.38    505.80548    -264.3944    91.390662     91.39681    91.237312     264.3944 0.0035000022 
     160    762316.38    506.17858   -433.34231    91.436198    91.379779    91.236158    433.34231 0.0040000022 
     180    761689.94    503.11423    -147.5791    91.481734    91.319165    91.176286     147.5791 0.0045000022 
     200    762955.42    502.25761    109.54236     91.52727    91.394597    91.206992   -109.54236 0.0050000022 
     220     764247.8    503.78228   -153.88217    91.572806    91.431188    91.279512    153.88217 0.0055000022 
     240    763571.97    500.06755    9.7480857    91.618342    91.322463     91.26199   -9.7480857 0.0060000022 
     260    763491.61    502.07664    13.160913    91.663878    91.262371     91.26711   -13.160913 0.0065000022 
     280    764974.86     502.4019   -358.33547    91.709414      91.3446    91.316733    358.33547 0.0070000022 
     300    765451.62    501.33654   -98.151739     91.75495    91.385613    91.287311    98.151739 0.0075000022 
     320     765204.2    502.30351    444.47374    91.800485    91.281811    91.316261   -444.47374 0.0080000022 
     340     765680.5     501.4271    115.08434    91.846021    91.244333    91.365311   -115.08434 0.0085000022 
     360    766673.35    498.02878   -227.37872    91.891557    91.340719    91.341961    227.37872 0.0090000022 
     380     766614.8    502.67889   -319.77277    91.937093    91.404552    91.225995    319.77277 0.0095000022 
     400    766438.94    497.29828   -56.608128    91.982629    91.328271    91.236056    56.608128  0.010000002 
     420    765527.97    501.16313    363.45421    92.028165    91.250754    91.159899   -363.45421  0.010500002 
     440    765703.51    497.94018    89.046432    92.073701     91.23764    91.148808   -89.046432  0.011000002 
     460    766700.14    499.97091   -477.13159    92.119237    91.302544    91.157484    477.13159  0.011500002 
     480    765748.32    499.33037   -405.06081    92.164773    91.241654    91.060063    405.06081  0.012000002 
     500    764762.16    501.97196   -186.80204    92.210309    91.128652    91.010598    186.80204  0.012500002 
     520    765225.77    498.27154    300.93138    92.255845    91.135161    91.014321   -300.93138  0.013000002 
     540    765258.71    498.85191    404.08895    92.301381    91.192185    90.916447   -404.08895  0.013500002 
     560    765845.29    499.73789   -312.18678    92.346917    91.248298    90.885347    312.18678  0.014000002 
     580    765679.04    497.91356   -413.03496    92.392453    91.241419    90.827682    413.03496  0.014500002 
     600    765848.45    498.00816   -311.46884    92.437989    91.280638    90.764011    311.46884  0.015000002 
     620    766740.61    499.49552   -222.55391    92.483525    91.307206    90.798576    222.55391  0.015500002 
     640     766813.7    498.90274    218.18335    92.529061    91.290584    90.779069   -218.18335  0.016000002 
     660    766898.67    501.51082   -156.45773    92.574597    91.305732    90.729416    156.45773  0.016500002 
     680       767203    498.77239    384.96825    92.620133    91.277656      90.7487   -384.96825  0.017000002 
     700    768111.75    501.78113   -531.40742    92.665669    91.313924    90.775476    531.40742  0.017500002 
     720    768125.27    499.29522   -610.15264    92.711205    91.296755    90.749552    610.15264  0.018000002 
     740    767945.57    500.23352   -421.60547    92.756741    91.255028    90.725246    421.60547  0.018500002 
     760    767545.62    500.62065   -124.65685    92.802276    91.212805    90.675458    124.65685  0.019000002 
     780    766822.02    499.24905    49.248776    92.847812    91.148803    90.609123   -49.248776  0.019500002 
     800    766958.75    502.21199    12.644425    92.893348    91.040058    90.689051   -12.644425  0.020000002 
     820    767806.21    502.12232   -254.97071    92.938884    91.060817    90.724091    254.97071  0.020500002 
     840    767847.33    501.32958    -122.1402     92.98442    91.069957    90.675416     122.1402  0.021000002 
     860    768001.66    499.82934   -286.08019    93.029956    91.044032    90.675061    286.08019  0.021500002 
     880    767552.25    500.45177   -16.823788    93.075492    90.985725    90.635711    16.823788  0.022000002 
     900    767622.15     500.2005   -478.96683    93.121028    91.014948    90.570551    478.96683  0.022500002 
     920    768272.48    502.38188   -430.97208    93.166564    91.028279    90.589709    430.97208  0.023000002 
     940    768114.69    500.73203     298.8265      93.2121    90.977735    90.577151    -298.8265  0.023500002 
     960    768758.25    500.92449   -375.02031    93.257636    90.967551     90.61892    375.02031  0.024000002 
     980     768286.8    499.80586   -113.99318    93.303172    90.851413    90.634861    113.99318  0.024500002 
    1000    767000.82    498.79193    139.29971    93.348708     90.70852    90.581485   -139.29971  0.025000002 
    1020    767584.64    498.20876   -406.80268    93.394244    90.697395    90.617348    406.80268  0.025500002 
    1040    767634.22    500.10894   -544.33033     93.43978    90.655506    90.620893    544.33033  0.026000002 
    1060    767290.53    499.31237   -78.300954    93.485316    90.564809    90.626866    78.300954  0.026500002 
    1080    768899.85     497.8662   -316.53797    93.530852    90.635224    90.702211    316.53797  0.027000002 
    1100    768753.18    500.03027    117.53093    93.576388    90.622636    90.653371   -117.53093  0.027500002 
    1120    768442.92    500.86785    206.72327    93.621924    90.575857    90.619487   -206.72327  0.028000002 
    1140    769714.43     499.9431   -313.10325     93.66746    90.583386    90.717764    313.10325  0.028500002 
    1160    770302.41    498.18117   -352.47037    93.712996    90.536542      90.7899    352.47037  0.029000002 
    1180    770735.34    499.96523   -163.75607    93.758532    90.498565    90.834908    163.75607  0.029500002 
    1200    771386.17    500.93817   -567.73906    93.804068    90.511508    90.854487    567.73906  0.030000002 
    1220    770858.68    499.32341    213.02351    93.849603     90.56905    90.690649   -213.02351  0.030500002 
    1240     771372.3    500.63715   -327.28981    93.895139    90.576166    90.699939    327.28981  0.031000002 
    1260    771786.36    498.71569   -188.67932    93.940675    90.509826    90.771119    188.67932  0.031500002 
    1280    771149.25    501.34173   -335.23387    93.986211    90.457135     90.70505    335.23387  0.032000002 
    1300    770482.17    500.71606    -197.0359    94.031747    90.394565      90.6454     197.0359  0.032500002 
    1320    770967.03    501.74164   -148.29596    94.077283    90.369781    90.683403    148.29596  0.033000002 
    1340    770891.08    503.84019    70.897085    94.122819     90.37831    90.622049   -70.897085  0.033500002 
    1360    771166.65    502.11452    17.711789    94.168355    90.458527    90.530255   -17.711789  0.034000002 
    1380    771892.37    503.56635    -198.4014    94.213891    90.516742    90.513403     198.4014  0.034500002 
    1400    772085.99    501.39576   -335.92988    94.259427    90.549129    90.460003    335.92988  0.035000002 
    1420    772102.96     501.8096   -200.73635    94.304963    90.522237    90.445173    200.73635  0.035500002 
    1440    772925.07    504.60796   -683.54967    94.350499    90.563082    90.456962    683.54967  0.036000002 
    1460    773567.89    501.92458   -235.28369    94.396035    90.554026     90.49757    235.28369  0.036500002 
    1480    774048.54    500.61928    23.758943    94.441571    90.531143    90.533015   -23.758943  0.037000002 
    1500    774840.91    501.36498    -297.1845    94.487107    90.621005    90.492193     297.1845  0.037500002 
    1520    774817.72    499.55902   -99.269136    94.532643    90.668118      90.3989    99.269136  0.038000002 
    1540    774762.76    502.08544    153.89967    94.578179    90.676204     90.34091   -153.89967  0.038500002 
    1560    775893.89    500.13926   -195.46335    94.623715    90.741406    90.364288    195.46335  0.039000002 
    1580    775471.22    499.66811    284.88861    94.669251    90.711898    90.300986   -284.88861  0.039500002 
    1600    775985.89    500.41224   -769.70127    94.714787     90.66823    90.360973    769.70127  0.040000002 
    1620    775921.72    497.84405   -309.46458    94.760323    90.584389     90.39367    309.46458  0.040500002 
    1640    775824.15     499.4333   -161.57554    94.805859    90.525257    90.397903    161.57554  0.041000002 
    1660    775587.23    500.03097   -26.683512    94.851394    90.480201    90.371892    26.683512  0.041500002 
    1680    775432.92    498.12566     111.8812     94.89693     90.52038     90.27047    -111.8812  0.042000002 
    1700    774891.25    500.72673   -95.213238    94.942466    90.493904    90.190526    95.213238  0.042500002 
    1720    775780.87    500.17006    -557.1684    94.988002    90.458944    90.285664     557.1684  0.043000002 
    1740     776058.4    500.30905   -251.64604    95.033538    90.403535    90.330016    251.64604  0.043500002 
    1760    776100.67    499.78298   -606.82229    95.079074    90.364681    90.330495    606.82229  0.044000002 
    1780    775342.45      501.324    210.19667     95.12461    90.264565    90.299091   -210.19667  0.044500002 
    1800    775185.92    498.75507     502.3199    95.170146     90.22231    90.279927    -502.3199  0.045000002 
    1820    775563.28    499.94162   -364.35662    95.215682    90.177596    90.325444    364.35662  0.045500002 
    1840    775914.17    498.94495   -414.65031    95.261218    90.095832    90.405084    414.65031  0.046000002 
    1860    776197.01    497.77424   -241.13134    95.306754    90.084331    90.406369    241.13134  0.046500002 
    1880    776795.95    499.21222   -570.37624     95.35229    90.090944    90.426285    570.37624  0.047000002 
    1900     776703.2    498.04236   -432.67683    95.397826    90.039746    90.423718    432.67683  0.047500002 
    1920     776358.1    501.87939    50.897276    95.443362    89.971947    90.408495   -50.897276  0.048000002 
    1940    776888.15    498.42093    201.65917    95.488898    89.932425    90.466817   -201.65917  0.048500002 
    1960    777671.14    497.53701   -107.46666    95.534434    89.899953    90.547525    107.46666  0.049000002 
    1980    777340.97    498.64521   -69.618104     95.57997    89.816653    90.549864    69.618104  0.049500002 
    2000     777587.5    499.26886   -854.03725    95.625506    89.823256    90.528794    854.03725  0.050000002 
    2020    777041.39    496.81662    -276.4906    95.671042    89.792236    90.453393     276.4906  0.050500002 
    2040    777101.05    498.50816   -97.573783    95.716578    89.801393    90.408083    97.573783  0.051000002 
    2060    777423.35    496.52034   -499.94852    95.762114    89.854453    90.349188    499.94852  0.051500002 
    2080    776272.86    498.62202    207.16111     95.80765    89.808013    90.219232   -207.16111  0.052000002 
    2100    776273.23    498.53544   -504.44969    95.853185    89.787139     90.19738    504.44969  0.052500002 
    2120    776316.17     497.7992   -564.65572    95.898721    89.803017    90.143597    564.65572  0.053000002 
    2140    775909.73    500.42207    -10.22376    95.944257    89.830431    90.026161     10.22376  0.053500002 
    2160    776308.67     498.2619    -311.5371    95.989793     89.84096    90.019169     311.5371  0.054000002 
    2180    776105.38    499.73984    68.232502    96.035329    89.793166    90.000803   -68.232502  0.054500002 
    2200    776242.89    498.94563   -267.26942    96.080865    89.813874    89.953342    267.26942  0.055000002 
    2220       776841    498.59305   -328.62465    96.126401    89.866631    89.927184    328.62465  0.055500002 
    2240    777617.31    501.59843   -211.54519    96.171937    89.881057    89.959987    211.54519  0.056000002 
    2260    778081.38    501.28048    -467.6654    96.217473    89.875994    89.976142     467.6654  0.056500002 
    2280    777861.28    501.88293   -212.14887    96.263009    89.881499    89.902633    212.14887  0.057000002 
    2300    778150.63    501.43249   -324.38184    96.308545    89.825266    89.949829    324.38184  0.057500002 
    2320    778554.67    501.91053   -78.698821    96.354081    89.857718    89.921515    78.698821  0.058000002 
    2340    779015.73    501.43257    274.97775    96.399617    89.892155    89.897813   -274.97775  0.058500002 
    2360    779461.85    501.51198   -280.00152    96.445153     89.84643    89.952581    280.00152  0.059000002 
    2380    779639.54    502.77154   -606.20866    96.490689    89.827213    89.949867    606.20866  0.059500002 
    2400    779304.91     501.0316   -98.368385    96.536225    89.809666    89.886407    98.368385  0.060000002 
    2420    779654.19    501.12067   -107.68096    96.581761      89.7861    89.907886    107.68096  0.060500002 
    2440    779909.69    500.82092   -399.29514    96.627297    89.831033    89.850002    399.29514  0.061000002 
    2460     779271.4     501.6345   -236.11616    96.672833    89.905337    89.660017    236.11616  0.061500002 
    2480    779293.35    501.33546   -287.95176    96.718369    89.890441     89.63518    287.95176  0.062000002 
    2500    779176.37    500.00955    11.995229    96.763905    89.833095    89.636734   -11.995229  0.062500002 
    2520    779369.72    501.06005     126.5414    96.809441     89.80774    89.642105    -126.5414  0.063000002 
    2540    779785.11    499.36055   -172.77176    96.854976    89.800739    89.654705    172.77176  0.063500002 
    2560    780126.52    500.78498   -297.99969    96.900512    89.814532     89.63804    297.99969  0.064000002 
    2580    780997.54    500.91986   -804.28219    96.946048     89.86724    89.643366    804.28219  0.064500002 
    2600    781241.36    499.09746   -506.07595    96.991584    89.861377      89.6351    506.07595  0.065000002 
    2620    781879.98    501.65984   -377.49266     97.03712    89.919216    89.608597    377.49266  0.065500002 
    2640    781584.01    499.36085    492.13713    97.082656    89.914437    89.537423   -492.13713  0.066000002 
    2660    782726.53    500.90116   -412.13139    97.128192    89.970104    89.570814    412.13139  0.066500002 
    2680    783252.85    502.21973   -175.35257    97.173728    89.963778    89.595342    175.35257  0.067000002 
    2700    783960.34    498.22531   -93.389861    97.219264      89.9486    89.649394    93.389861  0.067500002 
    2720    783727.27    499.15394   -373.45565      97.2648    89.859837     89.66927    373.45565  0.068000002 
    2740    783115.83    502.05334   -259.95373    97.310336    89.799192    89.617866    259.95373  0.068500002 
    2760    784012.16    500.27743   -316.71866    97.355872    89.823992    89.653715    316.71866  0.069000002 
    2780    784641.35    500.33009   -309.41401    97.401408    89.795815    89.711859    309.41401  0.069500002 
    2800    785476.77    500.47754   -46.195505    97.446944    89.776136    89.785088    46.195505  0.070000002 
    2820    786350.79    498.84063   -53.212674     97.49248    89.729844    89.889362    53.212674  0.070500002 
    2840    786732.81    497.93222   -338.11761    97.538016    89.682018    89.938983    338.11761  0.071000002 
    2860    786457.48    498.15816     -271.776    97.583552     89.72007     89.82744      271.776  0.071500002 
    2880    786520.84    498.34811   -314.35045    97.629088    89.688823    89.824059    314.35045  0.072000002 
    2900    786598.05    500.08138   -217.29875    97.674624     89.59961    89.880401    217.29875  0.072500002 
    2920    786562.57    496.81879   -188.12069     97.72016    89.586585    89.847527    188.12069  0.073000002 
    2940    786651.18     499.4642   -344.78917    97.765696    89.621075    89.781231    344.78917  0.073500002 
    2960    786585.46    497.75322   -344.83328    97.811232    89.497588    89.855746    344.83328  0.074000002 
    2980    786463.71    495.95371   -280.59276    97.856768    89.453565    89.844226    280.59276  0.074500002 
    3000    786454.87    497.97171   -443.85491    97.902303    89.473812    89.781107    443.85491  0.075000002 
    3020    787032.77      497.977   -91.194506    97.947839    89.414187    89.865196    91.194506  0.075500002 
    3040    786960.92    497.31567   -100.87206    97.993375    89.449358    89.779922    100.87206  0.076000002 
    3060    786821.33    500.17697   -84.513402    98.038911    89.486142    89.685423    84.513402  0.076500002 
    3080    787047.94    498.79101     -319.756    98.084447    89.438519     89.71735      319.756  0.077000002 
    3100    786430.51    498.57714   -288.26356    98.129983    89.390133    89.653871    288.26356  0.077500002 
    3120    785444.02    501.61089   -135.79927    98.175519    89.370883    89.519157    135.79927  0.078000002 
    3140    786215.79    500.07445   -159.12089    98.221055     89.32807    89.608501    159.12089  0.078500002 
    3160    786991.66    501.24031   -311.43631    98.266591    89.286227    89.697382    311.43631  0.079000002 
    3180    786621.07    502.22095   -252.04345    98.312127    89.247101    89.652904    252.04345  0.079500002 
    3200    786537.06    501.88021    81.816945    98.357663    89.216033    89.633031   -81.816945  0.080000002 
    3220    787888.26    502.70987   -410.32045    98.403199     89.24443    89.716907    410.32045  0.080500002 
    3240    788037.04    501.16178   -147.86378    98.448735     89.23571    89.701109    147.86378  0.081000002 
    3260    787979.77    502.56637   -461.44048    98.494271    89.264661    89.624044    461.44048  0.081500002 
    3280     788239.5    501.15158    98.542298    98.539807    89.242754    89.634154   -98.542298  0.082000002 
    3300    788889.72    502.43515   -280.33598    98.585343    89.246936    89.662456    280.33598  0.082500002 
    3320    788631.81    501.69803   -92.818259    98.630879    89.239277     89.59945    92.818259  0.083000002 
    3340    788548.58    501.13692   -95.950746    98.676415    89.208584    89.579461    95.950746  0.083500002 
    3360    788894.33    500.62052   -443.46519    98.721951      89.2092    89.576782    443.46519  0.084000002 
    3380    788724.86    501.54204     172.3259    98.767487     89.25704    89.468271    -172.3259  0.084500002 
    3400    789454.43    500.72364   -348.58021    98.813023    89.310538    89.456145    348.58021  0.085000002 
    3420    789308.77    499.86902   -322.51902    98.858559    89.348493    89.360466    322.51902  0.085500002 
    3440     789231.4    500.82641   -198.20261    98.904094    89.327993    89.331065    198.20261  0.086000002 
    3460    790563.46    499.07858   -504.02187     98.94963    89.400809    89.367809    504.02187  0.086500002 
    3480    790499.77      500.475    -168.6476    98.995166    89.432727    89.287628     168.6476  0.087000002 
    3500    789494.61    500.20543     228.2259    99.040702    89.299619    89.265954    -228.2259  0.087500002 
    3520    789189.02    502.99973   -245.25639    99.086238    89.235734    89.254247    245.25639  0.088000002 
    3540    789766.15    499.82655   -720.45286    99.131774     89.32448    89.189789    720.45286  0.088500002 
    3560    789629.86    502.68225    89.124195     99.17731     89.30978    89.148126   -89.124195  0.089000002 
    3580    789929.65    498.97611    268.35597    99.222846    89.300541    89.150267   -268.35597  0.089500002 
    3600    790516.18    499.15117   -474.99174    99.268382    89.324922    89.151195    474.99174  0.090000002 
    3620    790644.42    500.68134   -115.99289    99.313918    89.259224    89.190374    115.99289  0.090500002 
    3640    792265.31    498.95291   -411.73063    99.359454    89.366292    89.225237    411.73063  0.091000002 
    3660    792810.15    498.78455   -467.48205     99.40499    89.403735    89.208319    467.48205  0.091500002 
    3680    792638.13    500.35944    154.97348    99.450526    89.333202    89.218512   -154.97348  0.092000002 
    3700    793079.93    498.70225   -289.68672    99.496062    89.322704    89.237872    289.68672  0.092500002 
    3720    793762.62     501.0194   -371.98772    99.541598    89.406225    89.190435    371.98772  0.093000002 
    3740    793654.05    499.69043    160.66363    99.587134    89.404548     89.13913   -160.66363  0.093500002 
    3760    794066.05    500.09817     -331.111     99.63267    89.421694    89.127549      331.111  0.094000002 
    3780    794030.34    499.99096   -192.78219    99.678206    89.401958    89.102493    192.78219  0.094500002 
    3800    794783.18     501.1308   -208.25694    99.723742       89.394    89.154184    208.25694  0.095000002 
    3820    795761.96    498.30362   -358.13847    99.769278    89.400155    89.217095    358.13847  0.095500002 
    3840    796142.87    500.16518   -517.07132    99.814814    89.392609     89.22661    517.07132  0.096000002 
    3860    796130.15    499.28655   -37.687724     99.86035    89.444828    89.132432    37.687724  0.096500002 
    3880    797456.21    500.87641   -428.17638    99.905885    89.546733    89.138645    428.17638  0.097000002 
    3900    796925.42    500.56938    123.05622    99.951421    89.501087    89.084141   -123.05622  0.097500002 
    3920    796591.92    500.49818   -35.100581    99.996957    89.415679    89.091328    35.100581  0.098000002 
    3940    797356.53    500.40364   -623.63626    100.04249     89.40927    89.142641    623.63626  0.098500002 
    3960    796771.29    502.75091   -465.97556    100.08803     89.38816    89.057713    465.97556  0.099000002 
    3980    795605.84    502.47896    -257.6862    100.13357     89.30644    88.968344     257.6862  0.099500002 
    4000    795709.77    502.98397   -157.24729     100.1791    89.253661    88.992113    157.24729          0.1 
    4020    795796.81    504.27426    381.58243    100.22464    89.262852    88.952251   -381.58243       0.1005 
    4040     796469.2     501.7049   -197.71948    100.27017    89.262952    88.986879    197.71948        0.101 
    4060    796426.73     501.2535   -221.15576    100.31571    89.131713    89.072702    221.15576       0.1015 
    4080    796349.74    501.26087    -847.1881    100.36125    89.059315     89.09605     847.1881        0.102 
    4100     796462.5    501.00783   -302.20613    100.40678    89.026281    89.101304    302.20613       0.1025 
    4120    797200.75    501.10646    364.01256    100.45232     89.00638    89.163397   -364.01256        0.103 
    4140    798240.45    500.53681    9.4230157    100.49785    89.018414    89.227166   -9.4230157       0.1035 
    4160    798658.11    499.55848    43.855348    100.54339    89.007547    89.244314   -43.855348        0.104 
    4180    799838.69    500.87608    -385.9066    100.58892    89.069903    89.273233     385.9066       0.1045 
    4200    800996.07    501.99953   -461.07625    100.63446    89.127316    89.304395    461.07625        0.105 
    4220    800676.45    499.41061   -151.46655       100.68    89.081983    89.273792    151.46655       0.1055 
    4240    800117.41    500.42012   -166.31358    100.72553     88.97809    89.275249    166.31358        0.106 
    4260    800632.09     500.7268   -309.29258    100.77107     88.97324    89.297176    309.29258       0.1065 
    4280    800675.15    499.31879    -285.4856     100.8166    88.999859    89.234947     285.4856        0.107 
    4300    799571.65    499.75566   -192.58284    100.86214    88.955492    89.116155    192.58284       0.1075 
    4320     799118.5    498.12157   -282.94985    100.90768    88.865805    89.115305    282.94985        0.108 
    4340    798235.96    499.55172   -295.02273    100.95321    88.791984     89.05071    295.02273       0.1085 
    4360    797873.79    500.50024   -468.76013    100.99875    88.774477     88.98772    468.76013        0.109 
    4380    798471.46    499.93441     20.73772    101.04428    88.807402    88.981246    -20.73772       0.1095 
    4400    799488.28    501.86516   -372.26983    101.08982    88.831727    89.030041    372.26983         0.11 
    4420    798865.53     499.7815    87.945708    101.13536    88.749455    89.003067   -87.945708       0.1105 
    4440    798846.99    500.70703    10.832941    101.18089     88.74051    88.969916   -10.832941        0.111 
    4460    799571.24    497.91564   -278.28042    101.22643    88.753551    88.997441    278.28042       0.1115 
    4480     799896.9    500.67707   -328.05002    101.27196    88.711496    89.035844    328.05002        0.112 
    4500    800537.41     499.9887   -294.31355     101.3175    88.711989    89.066595    294.31355       0.1125 
    4520     800983.6    499.24504   -16.159701    101.36304    88.704938    89.083284    16.159701        0.113 
    4540    801118.77    498.67546    -117.1805    101.40857    88.616005    89.147686     117.1805       0.1135 
    4560    800661.21    499.14731   -135.03452    101.45411     88.56469    89.108379    135.03452        0.114 
    4580    800469.53     500.0271    -111.7517    101.49964    88.533871    89.078078     111.7517       0.1145 
    4600    800377.22    498.48647   -171.89828    101.54518    88.508073    89.053814    171.89828        0.115 
    4620    800780.15    498.94303   -347.16116    101.59072    88.540228    89.026366    347.16116       0.1155 
    4640    800909.72    498.04816   -49.640329    101.63625    88.543957    88.997129    49.640329        0.116 
    4660     801699.3    499.26025   -717.77457    101.68179    88.481086    89.108244    717.77457       0.1165 
    4680    801161.27    500.27138   -46.014552    101.72732    88.442596    89.047319    46.014552        0.117 
    4700    801093.77    498.48457    -14.79316    101.77286    88.420291    89.022428     14.79316       0.1175 
    4720    800794.65    498.03566   -332.87121     101.8184    88.381372    88.988559    332.87121        0.118 
    4740     800254.3    498.56317   -583.34893    101.86393    88.354034    88.916262    583.34893       0.1185 
    4760    799475.05    500.00481   -94.415113    101.90947    88.277156    88.867313    94.415113        0.119 
    4780    799568.24    501.04658   -32.163264      101.955    88.287794    88.827272    32.163264       0.1195 
    4800     798374.9    501.88292    150.22635    102.00054    88.196395    88.746978   -150.22635         0.12 
    4820    797995.95    499.64454   -644.22456    102.04608    88.198104    88.663553    644.22456       0.1205 
    4840    798173.06    500.81883   -111.91351    102.09161    88.198309     88.64347    111.91351        0.121 
    4860    798793.51    501.06107   -420.18017    102.13715    88.181084    88.690146    420.18017       0.1215 
    4880    798057.28    502.15655    8.6720799    102.18268     88.08953    88.660967   -8.6720799        0.122 
    4900    797555.07    502.62139   -341.09285    102.22822    88.078213    88.577086    341.09285       0.1225 
    4920    797024.56    502.20634   -587.30247    102.27376    87.999048    88.558353    587.30247        0.123 
    4940    796697.07    501.49721    199.75351    102.31929    87.895701    88.586606   -199.75351       0.1235 
    4960    797365.39    504.58842   -139.48749    102.36483     87.92534    88.591604    139.48749        0.124 
    4980    796949.27    502.63659   -249.02254    102.41036    87.858194    88.573641    249.02254       0.1245 
    5000    796776.93    502.97219    -139.6362     102.4559    87.871455    88.501772     139.6362        0.125 
    5020    797738.15    500.41106   -523.37089    102.50143    87.935735    88.504431    523.37089       0.1255 
    5040    798494.51    501.96571   -744.11749    102.54697    87.940577    88.544133    744.11749        0.126 
    5060    798023.72    502.46534      81.4086    102.59251    87.857528    88.536262     -81.4086       0.1265 
    5080    798458.29    501.59969    339.65206    102.63804    87.878554    88.523988   -339.65206        0.127 
    5100     799124.9    502.86101   -24.212296    102.68358    87.918417    88.518452    24.212296       0.1275 
    5120    799320.15    499.29409   -186.32554    102.72911    87.958791     88.46021    186.32554        0.128 
    5140    799293.25    499.81975    -501.0528    102.77465    87.960707    88.416114     501.0528       0.1285 
    5160    798996.54    500.34191   -414.93358    102.82019    87.927063    88.377954    414.93358        0.129 
    5180    799866.99    499.41752   -363.36639    102.86572    87.971624    88.390274    363.36639       0.1295 
    5200    801386.04    499.67797   -244.89963    102.91126    88.128136    88.361748    244.89963         0.13 
    5220    802311.01    499.68412   -597.85262    102.95679    88.174258    88.378357    597.85262       0.1305 
    5240    801289.64    500.44201    83.578405    103.00233    88.052274    88.349053   -83.578405        0.131 
    5260    801662.68     502.3532   -273.12009    103.04787    88.031713    88.371761    273.12009       0.1315 
    5280    802126.64    497.84548    -228.3082     103.0934    87.984875    88.430901     228.3082        0.132 
    5300    802190.54     500.0144   -264.17644    103.13894    87.930219    88.453848    264.17644       0.1325 
    5320    802156.28    497.74418   -163.49998    103.18447    87.929827     88.41143    163.49998        0.133 
    5340    802386.48    498.98885   -332.37912    103.23001    87.964119     88.36333    332.37912       0.1335 
    5360    802599.11    499.35277    188.51118    103.27555    88.008958    88.302764   -188.51118        0.134 
    5380    802671.79    498.37937   -352.17604    103.32108    88.014288    88.266493    352.17604       0.1345 
    5400    802284.21    498.71362   -504.09645    103.36662    87.951935    88.247526    504.09645        0.135 
    5420    802657.48    501.55776   -215.16908    103.41215      87.9106    88.291202    215.16908       0.1355 
    5440    803060.85    500.30336   -47.425659    103.45769    87.875974    88.331484    47.425659        0.136 
    5460     803813.2    499.07127   -272.78907    103.50323    87.864193    88.387188    272.78907       0.1365 
    5480    804170.41     501.4245   -17.825496    103.54876     87.81408    88.438022    17.825496        0.137 
    5500    804231.68    499.55802   -205.52085     103.5943     87.76863    88.451664    205.52085       0.1375 
    5520    804660.83    500.42176   -293.90147    103.63983    87.758978    88.469709    293.90147        0.138 
    5540    805987.65    499.73265   -501.87205    103.68537    87.749993     88.58574    501.87205       0.1385 
    5560    806411.87    499.36859   -148.91575    103.73091    87.738435    88.605128    148.91575        0.139 
    5580    807288.36    498.84442    47.072388    103.77644    87.771522    88.629089   -47.072388       0.1395 
    5600    807872.32    501.58907   -177.67371    103.82198    87.823537    88.601792    177.67371         0.14 
    5620    807580.44    499.54806    181.97532    103.86751    87.841069    88.513282   -181.97532       0.1405 
    5640    808193.67    499.29329   -71.489072    103.91305    87.859861    88.522739    71.489072        0.141 
    5660    808941.15    498.72153   -633.03463    103.95859    87.814158    88.611895    633.03463       0.1415 
    5680    808960.98    500.65678   -343.75889    104.00412    87.771238    88.618582    343.75889        0.142 
    5700    809403.89    499.85658     -136.498    104.04966    87.775876    88.623615      136.498       0.1425 
    5720    809369.06    498.28203   -103.62908    104.09519    87.712027    88.645516    103.62908        0.143 
    5740    809192.02    502.61819   -178.18641    104.14073    87.632132    88.668141    178.18641       0.1435 
    5760    810067.32    498.41705   -655.64634    104.18627    87.658141     88.69893    655.64634        0.144 
    5780    810495.93    497.99361   -356.11044     104.2318    87.701548    88.663187    356.11044       0.1445 
    5800     810113.1     499.5903   -175.46695    104.27734    87.812366    88.470819    175.46695        0.145 
    5820    809808.49    499.54552   -145.39359    104.32287    87.891204    88.319657    145.39359       0.1455 
    5840    810595.44    502.27387   -473.81388    104.36841    87.930839    88.327081    473.81388        0.146 
    5860    810608.97    500.25917   -170.42456    104.41395    87.916715    88.304217    170.42456       0.1465 
    5880    809912.53    498.31917   -379.40836    104.45948     87.81931    88.287706    379.40836        0.147 
    5900     808626.8    503.02397    44.243437    104.50502    87.709647    88.219304   -44.243437       0.1475 
    5920    808911.72    500.27061   -874.25657    104.55055    87.716737    88.204822    874.25657        0.148 
    5940    808335.88     502.3612   -117.98283    104.59609    87.648631    88.172118    117.98283       0.1485 
    5960    807927.93     500.6348    56.120936    104.64162    87.567923    88.170459   -56.120936        0.149 
    5980    808142.08     500.4273    215.24915    104.68716     87.58502    88.138259   -215.24915       0.1495 
    6000    808340.88    501.13068   -342.42445     104.7327    87.614818    88.091639    342.42445         0.15 
    6020    808200.05    501.79467   -720.94386    104.77823    87.547238    88.105973    720.94386       0.1505 
    6040    808487.48    500.86837   -354.90805    104.82377    87.550618     88.09562    354.90805        0.151 
    6060    808958.88    499.27418    -805.7778     104.8693    87.588413    88.070691     805.7778       0.1515 
    6080    808421.63     500.4585    199.34509    104.91484     87.50234    88.060537   -199.34509        0.152 
    6100    809756.69    499.08356      311.464    104.96038    87.514863     88.15508     -311.464       0.1525 
    6120    810335.42    498.73862   -128.32552    105.00591    87.557223    88.137167    128.32552        0.153 
    6140    809264.48    501.52821    79.433629    105.05145    87.408059    88.132676   -79.433629       0.1535 
    6160     810060.5    498.28694   -1118.1374    105.09698    87.407403    88.181805    1118.1374        0.154 
    6180    809736.97    499.37424   -606.39729    105.14252    87.369319    88.146817    606.39729       0.1545 
    6200    809131.61    498.10766   -162.96069    105.18806    87.271905    88.141062    162.96069        0.155 
    6220    808783.21    501.53581    289.44659    105.23359    87.216305    88.121128   -289.44659       0.1555 
    6240    808731.07     500.6249    151.37985    105.27913    87.181953    88.112039   -151.37985        0.156 
    6260    808456.59     498.0511   -410.67247    105.32466    87.104923    88.121914    410.67247       0.1565 
    6280     808266.7     499.5797   -651.05648     105.3702    87.056417     88.11221    651.05648        0.157 
    6300    808479.12    499.66213   -711.44185    105.41574    87.036152    88.117807    711.44185       0.1575 
    6320    808144.39    498.71207    178.12848    105.46127    87.041502    88.037881   -178.12848        0.158 
    6340    807818.69    500.43082   -95.468598    105.50681    87.073108    87.932489    95.468598       0.1585 
    6360     808124.3    500.67522   -407.20416    105.55234    87.092485    87.908243    407.20416        0.159 
    6380    808832.02     499.8861   -157.42438    105.59788    87.067266    87.972762    157.42438       0.1595 
    6400    808570.65    498.77674   -76.428259    105.64342    87.004368    87.969977    76.428259         0.16 
    6420    808070.58    503.36164   -580.50504    105.68895    86.974916    87.907451    580.50504       0.1605 
    6440    807478.78    499.33749   -222.97797    105.73449     86.95903    87.821281    222.97797        0.161 
    6460       807672    500.36806   -198.57571    105.78002    86.977388    87.785948    198.57571       0.1615 
    6480     808293.4    500.31893   -171.91819    105.82556    86.969427    87.823724    171.91819        0.162 
    6500    808738.52    501.29006    67.446406     105.8711    86.968834    87.834892   -67.446406       0.1625 
    6520    810371.52    501.69602   -299.64034    105.91663    87.022444    87.920213    299.64034        0.163 
    6540    811004.74    501.48485   -182.00159    105.96217    86.977596    87.996451    182.00159       0.1635 
    6560    811579.04    499.08817   -217.56023     106.0077    86.932245    88.066857    217.56023        0.164 
    6580    812192.12    500.52327   -505.47241    106.05324    86.903948    88.124228    505.47241       0.1645 
    6600    811277.81    501.41903    168.34761    106.09878    86.848218    88.043707   -168.34761        0.165 
    6620    812137.23    501.18579   -107.72415    106.14431     86.90198    88.044662    107.72415       0.1655 
    6640    813142.03    502.70345    -459.3363    106.18985    86.985412    88.031274     459.3363        0.166 
    6660    812350.15    501.28073   -1.1622754    106.23538    86.917339    87.976697    1.1622754       0.1665 
    6680    812145.34     499.4565    91.949977    106.28092    86.825405    88.009923   -91.949977        0.167 
    6700    813198.83    502.14364   -620.89937    106.32646    86.807687    88.104324    620.89937       0.1675 
    6720    812886.45    499.63775     -274.463    106.37199    86.770043     88.07097      274.463        0.168 
    6740     813963.8    499.64402   -157.44434    106.41753    86.772282    88.147684    157.44434       0.1685 
    6760    815410.92    498.82534   -27.264566    106.46306    86.826856    88.211152    27.264566        0.169 
    6780    815608.27    500.39391   -17.833564     106.5086    86.840064    88.181365    17.833564       0.1695 
    6800     816567.6    499.58587   -753.14982    106.55413    86.903096    88.183348    753.14982         0.17 
    6820    816835.68    497.27905   -547.45279    106.59967    86.929175    88.148165    547.45279       0.1705 
    6840    817142.26    499.37199   -149.12696    106.64521    86.888614    88.184745    149.12696        0.171 
    6860    817524.26    499.40495    160.23308    106.69074    86.897353    88.179445   -160.23308       0.1715 
    6880    817322.99    499.14414   -51.616049    106.73628    86.847989    88.170214    51.616049        0.172 
    6900    816816.73    499.22632     -433.311    106.78181    86.794452    88.132352      433.311       0.1725 
    6920    817092.37    499.06049   -114.40691    106.82735    86.836854    88.081483    114.40691        0.173 
    6940    817523.83    499.32452   -424.52491    106.87289    86.863805    88.063112    424.52491       0.1735 
    6960    816841.54    499.53641    6.0467842    106.91842    86.850059    87.966063   -6.0467842        0.174 
    6980    817291.41    500.75825   -347.25051    106.96396     86.83837    87.988883    347.25051       0.1745 
    7000    817620.16    499.88815   -530.33682    107.00949    86.790072    88.035782    530.33682        0.175 
    7020    817635.95    501.03369   -571.12757    107.05503    86.762146    88.028361    571.12757       0.1755 
    7040     817001.7    501.17099    334.00427    107.10057    86.766734    87.918028   -334.00427        0.176 
    7060    816879.63    501.40511    -97.19284     107.1461    86.761935    87.872394     97.19284       0.1765 
    7080    817290.88    502.30159   -516.67867    107.19164    86.746836    87.894581    516.67867        0.177 
    7100    817409.25    501.89606   -277.03423    107.23717    86.724137    87.892982    277.03423       0.1775 
    7120    817137.83    502.41788   -155.90341    107.28271    86.745782    87.804588    155.90341        0.178 
    7140    816679.36    505.43111    -122.2253    107.32825    86.666462    87.798376     122.2253       0.1785 
    7160    817270.57    502.58384   -227.87277    107.37378    86.605625    87.886367    227.87277        0.179 
    7180    817967.64    501.84523    -598.7507    107.41932    86.662786    87.866047     598.7507       0.1795 
    7200    817311.22     503.6103   -142.67455    107.46485    86.590915    87.831172    142.67455         0.18 
    7220    816944.65    503.29864    119.79196    107.51039    86.527778    87.818627   -119.79196       0.1805 
    7240    817430.59    501.80577   -309.90469    107.55593    86.530453    87.830947    309.90469        0.181 
    7260    817361.24    501.45217   -348.60046    107.60146    86.473396    87.844253    348.60046       0.1815 
    7280    817191.66    501.33152   -75.316311      107.647    86.404074    87.859309    75.316311        0.182 
    7300    817807.25    501.99095   -499.74407    107.69253    86.473676    87.817575    499.74407       0.1825 
    7320    816671.27    501.93498    47.739535    107.73807    86.435453    87.697291   -47.739535        0.183 
    7340    816092.56    501.09834   -204.72143    107.78361    86.363895    87.670703    204.72143       0.1835 
    7360    816280.54     502.0908   -332.24141    107.82914    86.316028    87.702474    332.24141        0.184 
    7380    816428.92     500.8495    9.3773571    107.87468    86.341559    87.655462   -9.3773571       0.1845 
    7400    817624.76    500.88606   -210.45745    107.92021     86.45322    87.633481    210.45745        0.185 
    7420    818051.85    500.26036   -514.52508    107.96575    86.491849    87.603135    514.52508       0.1855 
    7440     817303.1    500.29844   -287.47843    108.01129     86.40001    87.579047    287.47843        0.186 
    7460    817123.15    500.27475    107.11278    108.05682     86.27446    87.650232   -107.11278       0.1865 
    7480    817715.44    499.90356   -84.570545    108.10236    86.190196    87.762537    84.570545        0.187 
    7500    817535.05    498.40067   -68.833352    108.14789    86.150337    87.746811    68.833352       0.1875 
    7520    817187.59    502.35508   -375.67086    108.19343    86.148273    87.674702    375.67086        0.188 
    7540    817739.52    498.69281    -373.8845    108.23897    86.177257    87.667513     373.8845       0.1885 
    7560     818824.8    499.95251   -369.42245     108.2845    86.221012    87.702419    369.42245        0.189 
    7580    819334.65    499.10867   -114.97542    108.33004    86.244538    87.696211    114.97542       0.1895 
    7600    820138.01    498.44762   -182.11193    108.37557    86.214133    87.776259    182.11193         0.19 
    7620    820735.96    499.12227   -456.03994    108.42111    86.190452    87.827488    456.03994       0.1905 
    7640    820376.07    498.41304   -92.894978    108.46665    86.148382    87.794974    92.894978        0.191 
    7660    821976.09    498.62525    -89.03235    108.51218    86.270379    87.804947     89.03235       0.1915 
    7680    822743.78     499.2659   -134.48296    108.55772    86.364517    87.754331    134.48296        0.192 
    7700    821321.67    499.93234   -29.668692    108.60325    86.310835     87.62038    29.668692       0.1925 
    7720    823105.74    499.26856   -913.88805    108.64879    86.356818    87.727168    913.88805        0.193 
    7740    824753.24    500.42048   -856.26858    108.69432    86.467214    87.753752    856.26858       0.1935 
    7760    823175.52     499.0326    424.26142    108.73986    86.380207     87.63739   -424.26142        0.194 
    7780     823668.2    501.55699    105.97777     108.7854    86.369617    87.663883   -105.97777       0.1945 
    7800    825352.08    501.29919   -173.16569    108.83093    86.429699    87.745307    173.16569        0.195 
    7820    825647.33    499.98285   -598.04797    108.87647    86.410729    87.759247    598.04797       0.1955 
    7840     825554.1     501.3696   -534.78182      108.922    86.477881    87.644542    534.78182        0.196 
    7860    824716.46    501.25412   -194.94288    108.96754    86.467493     87.52954    194.94288       0.1965 
    7880    823673.47     501.9605   -56.006923    109.01308    86.382174    87.468636    56.006923        0.197 
    7900    823760.31    501.88094   -179.42308    109.05861    86.354809    87.469041    179.42308       0.1975 
    7920    823743.79    503.01347   -371.37969    109.10415    86.312642    87.473495    371.37969        0.198 
    7940    824158.07    502.29723    -520.9302    109.14968    86.320039     87.47348     520.9302       0.1985 
    7960     824000.8    501.25545    27.255896    109.19522    86.316677    87.423722   -27.255896        0.199 
    7980    824317.54    501.61735   -65.340727    109.24076    86.257434    87.480913    65.340727       0.1995 
    8000    824722.36    500.53188   -212.97744    109.28629    86.267103    87.477601    212.97744          0.2 
    8020    825038.25    503.53219   -227.35962    109.33183    86.347834    87.392875    227.35962       0.2005 
    8040    824707.81    499.92998   -237.87322    109.37736    86.306211    87.363616    237.87322        0.201 
    8060    824550.47    501.53544     12.43754     109.4229    86.249867    87.367637    -12.43754       0.2015 
    8080    825348.38    501.76262   -27.627808    109.46844    86.289298    87.375859    27.627808        0.202 
    8100    825896.09    500.68367   -162.30569    109.51397    86.380113    87.305602    162.30569       0.2025 
    8120    825144.65    501.01886   -261.35661    109.55951    86.374686    87.195392    261.35661        0.203 
    8140    824672.12    499.91741   -279.86889    109.60504    86.339703    87.144548    279.86889       0.2035 
    8160    825664.48    500.40073   -589.68953    109.65058    86.361154    87.191517    589.68953        0.204 
    8180    826521.97    501.84593   -404.54922    109.69612    86.385033    87.221721    404.54922       0.2045 
    8200    826601.58    499.92628     -69.6198    109.74165    86.404652    87.174128      69.6198        0.205 
    8220    826993.74    501.14338   -269.51094    109.78719    86.401696    87.182294    269.51094       0.2055 
    8240    827351.38    500.52398   -25.284228    109.83272     86.34675    87.239314    25.284228        0.206 
    8260    828597.42     499.0159    163.85407    109.87826    86.370898    87.310077   -163.85407       0.2065 
    8280    829927.46    499.53585   -631.71732     109.9238    86.472709    87.311079    631.71732        0.207 
    8300    828658.97    499.18278   -723.58459    109.96933    86.378266    87.236809    723.58459       0.2075 
    8320    827132.34     500.8087   -62.800926    110.01487    86.277506    87.141702    62.800926        0.208 
    8340    827376.85    499.33524    246.88329     110.0604    86.362762    87.045384   -246.88329       0.2085 
    8360    827674.06    500.10145    56.748789    110.10594    86.363716    87.039678   -56.748789        0.209 
    8380    826861.06    498.52923   -126.30394    110.15148    86.301593    86.980802    126.30394       0.2095 
    8400    826437.61    498.23458   -639.79022    110.19701    86.259877    86.942359    639.79022         0.21 
    8420    825696.03    498.65913   -368.44894    110.24255    86.231573    86.856965    368.44894       0.2105 
    8440    825780.89    498.45519   -359.83311    110.28808    86.165413    86.896697    359.83311        0.211 
    8460    825019.37    498.98897   -230.07142    110.33362    86.088937    86.857822    230.07142       0.2115 
    8480    824645.61    499.29482   -522.44811    110.37916    86.045062    86.826908    522.44811        0.212 
    8500    824996.06    499.14487   -121.25797    110.42469    85.995022    86.878511    121.25797       0.2125 
    8520    826697.41    500.89929   -179.55292    110.47023     86.01567    87.000902    179.55292        0.213 
    8540    827207.54    501.56048   -39.144074    110.51576    86.033276     87.00091    39.144074       0.2135 
    8560    827760.52    499.71927   -235.70747     110.5613    86.078735    86.977256    235.70747        0.214 
    8580    828101.94    501.14779   -326.35825    110.60683    86.096287    86.959575    326.35825       0.2145 
    8600    828628.98    501.02975    -487.5261    110.65237    86.107727    86.967557     487.5261        0.215 
    8620    829394.86    501.63395   -238.75996    110.69791     86.06731    87.052992    238.75996       0.2155 
    8640    829678.66    500.88702   -75.881347    110.74344     86.08518    87.028903    75.881347        0.216 
    8660    830709.53    502.06524   -72.877309    110.78898    86.096156    87.090116    72.877309       0.2165 
    8680     832563.4    503.73192   -311.32832    110.83451    86.137028    87.207213    311.32832        0.217 
    8700    832974.28    500.39811   -219.99473    110.88005    86.144921    87.206428    219.99473       0.2175 
    8720    833075.03    503.41916   -239.22143    110.92559    86.110427    87.216096    239.22143        0.218 
    8740    834487.63    501.91428   -758.26701    110.97112    86.135318    87.302898    758.26701       0.2185 
    8760     835205.8    502.57049   -208.84151    111.01666    86.258953    87.217004    208.84151        0.219 
    8780    834685.55    500.70864   -58.203709    111.06219    86.256119    87.129804    58.203709       0.2195 
    8800    833969.79    501.89184    356.47134    111.10773    86.134731    87.142043   -356.47134         0.22 
    8820    834067.47    499.00154   -227.11394    111.15327    86.064614    87.187521    227.11394       0.2205 
    8840    834683.24    501.15686    -507.8697     111.1988    86.042021    87.239061     507.8697        0.221 
    8860    835441.58    500.18754   -638.81484    111.24434    86.074974    87.249163    638.81484       0.2215 
    8880    834802.45    499.95954   -203.23931    111.28987    86.103361    87.118012    203.23931        0.222 
    8900     834382.7    500.20482    151.74245    111.33541    86.035795    87.106948   -151.74245       0.2225 
    8920    834749.73    499.02766   -21.077836    111.38095    85.995517    87.150437    21.077836        0.223 
    8940    835573.89    500.21157   -566.87791    111.42648    86.049262    87.146367    566.87791       0.2235 
    8960    835785.38    499.17539   -377.23739    111.47202    86.044351     87.13779    377.23739        0.224 
    8980    835679.23    498.67372   -284.51625    111.51755    86.010074    87.125855    284.51625       0.2245 
    9000    836079.03    500.16745     7.084326    111.56309    86.030437    87.111334    -7.084326        0.225 
    9020    837689.93    500.13489   -406.71257    111.60863    86.110734    87.162211    406.71257       0.2255 
    9040    836818.04    500.59225    31.809712    111.65416    86.067302    87.079902   -31.809712        0.226 
    9060    836542.89    500.29601   -425.47183     111.6997    86.005309    87.078503    425.47183       0.2265 
    9080    836569.77    499.03418   -215.07698    111.74523    85.922902    87.129299    215.07698        0.227 
    9100    836818.52    499.76893   -190.45129    111.79077    85.900762     87.14216    190.45129       0.2275 
    9120    837022.34    499.94788    7.0681138    111.83631     85.89438    87.134368   -7.0681138        0.228 
    9140    837546.13    501.01207   -192.59954    111.88184    85.847061    87.201448    192.59954       0.2285 
    9160    837330.65    500.22286   -402.11485    111.92738    85.767191    87.224698    402.11485        0.229 
    9180     838161.6    498.74302   -399.14236    111.97291    85.781989    87.260695    399.14236       0.2295 
    9200    838350.62    499.73428   -15.287139    112.01845    85.728666    87.299161    15.287139         0.23 
    9220    838008.91    498.21337   -520.20778    112.06399    85.750046     87.20637    520.20778       0.2305 
    9240    836650.15    498.36311   -331.13868    112.10952    85.625259    87.156443    331.13868        0.231 
    9260    835944.15    497.00883   -219.23024    112.15506    85.478774    87.196713    219.23024       0.2315 
    9280    835896.37    496.40831   -252.68898    112.20059     85.48515    87.149842    252.68898        0.232 
    9300    835954.09    499.31289   -98.415533    112.24613    85.506405    87.098846    98.415533       0.2325 
    9320    836086.18    498.18564   -67.711742    112.29167    85.473111    87.111202    67.711742        0.233 
    9340    836890.78    495.55686   -582.07421     112.3372     85.51146    87.120602    582.07421       0.2335 
    9360    836181.49    500.41058   -401.23624    112.38274    85.490639    87.032685    401.23624        0.234 
    9380     835083.2    497.87689   -61.394974    112.42827    85.397334    86.978096    61.394974       0.2345 
    9400    835785.41    499.04104    -158.2903    112.47381    85.357723    87.056371     158.2903        0.235 
    9420    836199.86     501.2493   -424.90859    112.51935    85.305869    87.117215    424.90859       0.2355 
    9440    836339.01    499.65195   -145.59052    112.56488    85.249303    87.154256    145.59052        0.236 
    9460    836930.37    499.53955   -474.86115    112.61042     85.23217    87.198139    474.86115       0.2365 
    9480    836791.91    501.12819   -62.989099    112.65595    85.238824     87.14167    62.989099        0.237 
    9500    837277.25    501.02551   -551.93242    112.70149    85.247017    87.148607    551.93242       0.2375 
    9520    837126.37    503.79353   -290.14879    112.74702    85.139911     87.20728    290.14879        0.238 
    9540    836687.49    503.57849    339.72366    112.79256    85.118777    87.148004   -339.72366       0.2385 
    9560    837230.95    502.99116   -17.091655     112.8381     85.12517    87.162873    17.091655        0.239 
    9580    837754.24     502.5582   -745.55361    112.88363    85.089453    87.218764    745.55361       0.2395 
    9600    836945.01    500.51267   -170.01282    112.92917    85.045316    87.144583    170.01282         0.24 
    9620    838252.83    501.06366   -537.97468     112.9747    85.117568    87.171518    537.97468       0.2405 
    9640    838338.86     501.7008    156.14969    113.02024    85.098143    87.165232   -156.14969        0.241 
    9660    839255.34    502.30373    10.674314    113.06578    85.169003    87.152807   -10.674314       0.2415 
    9680    839896.27    500.50473   -53.236825    113.11131    85.206154    87.146239    53.236825        0.242 
    9700    839672.83    500.75293   -204.37865    113.15685    85.162478    87.132659    204.37865       0.2425 
    9720    840669.44    499.93623   -704.91108    113.20238    85.234892    87.126902    704.91108        0.243 
    9740    841514.11    500.17819   -240.59523    113.24792    85.290032    87.123013    240.59523       0.2435 
    9760       842116    503.43584   -95.335515    113.29346    85.384781    87.053578    95.335515        0.244 
    9780    842220.05    499.59174    206.64852    113.33899    85.396409    87.017504   -206.64852       0.2445 
    9800    842142.37    500.54559   -1.1374775    113.38453    85.374132    86.997228    1.1374775        0.245 
    9820    841631.14    498.97766   -133.32714    113.43006    85.339484    86.944799    133.32714       0.2455 
    9840    842271.02    499.42643   -767.12796     113.4756    85.375327     86.93947    767.12796        0.246 
    9860    841709.94    498.63753    -226.9546    113.52114    85.282839    86.940889     226.9546       0.2465 
    9880    842050.05    499.40815    29.152365    113.56667     85.30731    86.916206   -29.152365        0.247 
    9900    843015.09     498.2432   -256.73997    113.61221    85.362099    86.925113    256.73997       0.2475 
    9920    842892.52    500.76636   -183.74064    113.65774    85.288638    86.952483    183.74064        0.248 
    9940    841851.32    499.26085   -32.419909    113.70328    85.212418    86.887943    32.419909       0.2485 
    9960    841621.66    502.10681    -284.7357    113.74882    85.235618    86.805832     284.7357        0.249 
    9980    841815.02    499.95947   -194.74788    113.79435    85.249537     86.77686    194.74788       0.2495 
   10000    841635.31     500.9257    47.342648    113.83989    85.198289    86.775798   -47.342648         0.25 
   10020    841776.84    498.67307   -334.23284    113.88542     85.17246    86.781997    334.23284       0.2505 
   10040    842294.45    500.59063   -272.94202    113.93096    85.171126    86.802012    272.94202        0.251 
   10060    843271.74    499.90723   -17.342366     113.9765     85.21794    86.820287    17.342366       0.2515 
   10080     843572.6    499.60878    165.41638    114.02203    85.189599    86.845459   -165.41638        0.252 
   10100     844911.6    499.45042   -600.06046    114.06757    85.244386    86.892703    600.06046       0.2525 
   10120    845102.96    499.25131   -277.58055     114.1131    85.260228    86.861558    277.58055        0.253 
   10140    846547.99    498.36219   -292.64259    114.15864    85.222057    87.014331    292.64259       0.2535 
   10160    847924.92    499.08377    -177.2375    114.20418    85.223463    87.119673     177.2375        0.254 
   10180    847240.65    498.47158    203.61759    114.24971    85.211166    87.027231   -203.61759       0.2545 
   10200    846947.65    497.94067   -25.664433    114.29525     85.16693    87.007642    25.664433        0.255 
   10220    848439.83    499.09233   -512.16775    114.34078    85.228743    87.063035    512.16775       0.2555 
   10240       848595    497.69228   -293.08201    114.38632    85.208769    87.064697    293.08201        0.256 
   10260    847066.92    498.04382    -69.48539    114.43186    85.055451    87.029929     69.48539       0.2565 
   10280    847825.71    500.17026   -58.093052    114.47739    85.066338    87.062096    58.093052        0.257 
   10300    848048.77    499.06916   -111.93445    114.52293    85.112427    87.003238    111.93445       0.2575 
   10320     847624.8    501.09939   -87.135417    114.56846    85.046129    86.992941    87.135417        0.258 
   10340    848280.29    498.68215   -605.53173      114.614    85.041729    87.030129    605.53173       0.2585 
   10360    848257.72     498.7708   -279.46262    114.65953    85.024053    87.011337    279.46262        0.259 
   10380    848291.05    500.68854    -342.2043    114.70507    85.001311    87.003484     342.2043       0.2595 
   10400    848448.04    500.98446    -186.9885    114.75061    84.958939    87.028437     186.9885         0.26 
   10420    848682.56    501.07926   -297.76887    114.79614    84.994733    86.981315    297.76887       0.2605 
   10440    848041.58    502.38727   -198.59024    114.84168    84.952151    86.924707    198.59024        0.261 
   10460    848135.78    499.22363   -82.497707    114.88721    84.972161    86.879443    82.497707       0.2615 
   10480    849080.37     501.1898   -413.33744    114.93275    85.007898    86.905192    413.33744        0.262 
   10500    848989.57    501.63565   -11.168653    114.97829     84.97178    86.898406    11.168653       0.2625 
   10520     849370.6    499.85011   -272.32701    115.02382    84.984844    86.889629    272.32701        0.263 
   10540    848543.47    501.04044    89.426944    115.06936    84.954562    86.801593   -89.426944       0.2635 
   10560    848738.34    503.59481   -249.49046    115.11489    84.932629    86.809596    249.49046        0.264 
   10580    849519.99    500.88452    -3.184495    115.16043    84.980484    86.806276     3.184495       0.2645 
   10600    850004.01    504.50412   -75.147136    115.20597    84.967487    86.834685    75.147136        0.265 
   10620    849816.29    499.82801   -430.64064     115.2515    84.868088    86.882846    430.64064       0.2655 
   10640    849964.97    501.50247   -235.93361    115.29704     84.87085      86.8609    235.93361        0.266 
   10660    849589.34    501.79414    85.768629    115.34257    84.895946    86.762581   -85.768629       0.2665 
   10680     849090.1    498.47598   -1.8405888    115.38811    84.880304    86.693351    1.8405888        0.267 
   10700    849565.94    499.13034   -443.16994    115.43365    84.913145    86.674182    443.16994       0.2675 
   10720    849823.11    499.54759   -488.87998    115.47918    84.937479    86.641402    488.87998        0.268 
   10740    849530.16    499.29591    -462.1861    115.52472    84.899005    86.616631     462.1861       0.2685 
   10760    848454.61    500.70797   -31.533462    115.57025    84.787487    86.586619    31.533462        0.269 
   10780    847711.42    501.12865    616.40306    115.61579    84.739748     86.52542   -616.40306       0.2695 
   10800    848444.02    500.14113    8.0241235    115.66133    84.814441    86.489866   -8.0241235         0.27 
   10820    849332.23    500.15176   -694.74683    115.70686    84.898697    86.460446    694.74683       0.2705 
   10840    848549.84    498.91637   -211.59003     115.7524    84.852078    86.394257    211.59003        0.271 
   10860     848616.1    500.50037   -444.16833    115.79793    84.831223    86.388261    444.16833       0.2715 
   10880    848817.09     499.7423    543.93977    115.84347    84.861727    86.343708   -543.93977        0.272 
   10900    850033.89    500.39131   -21.814978    115.88901    84.952838    86.340809    21.814978       0.2725 
   10920    850387.31    498.69378   -519.28363    115.93454    84.941447    86.354359    519.28363        0.273 
   10940    849865.68    501.01181   -84.600405    115.98008    84.890226    86.319557    84.600405       0.2735 
   10960    850637.46    497.47745    -57.33434    116.02561    84.953415      86.2998     57.33434        0.274 
   10980    850932.74    501.53253   -395.24927    116.07115     84.93019    86.319487    395.24927       0.2745 
   11000       849754    499.69451    -347.9773    116.11669    84.797648    86.300791     347.9773        0.275 
   11020    850132.02    499.08014   -201.22942    116.16222    84.817861     86.28477    201.22942       0.2755 
   11040    851502.04    501.62741   -400.68128    116.20776    84.866149    86.340802    400.68128        0.276 
   11060     850852.4    498.02962   -245.69041    116.25329    84.759381     86.34977    245.69041       0.2765 
   11080    850004.74    499.07552    43.527133    116.29883    84.675434    86.315457   -43.527133        0.277 
   11100    850405.53     499.0967   -257.72425    116.34437    84.654745    86.343453    257.72425       0.2775 
   11120    849774.38    497.71336   -193.57707     116.3899    84.608957     86.29229    193.57707        0.278 
   11140    849591.74    498.30882    -271.6293    116.43544    84.581242    86.268262     271.6293       0.2785 
   11160    850540.81    498.20505   -282.31388    116.48097    84.639124    86.271828    282.31388        0.279 
   11180    850757.41    498.76499   -608.77682    116.52651    84.703829    86.194183    608.77682       0.2795 
   11200     850734.6    496.07093    138.97284    116.57205    84.716795    86.145018   -138.97284         0.28 
   11220    850876.12    501.36016    203.80427    116.61758    84.743989    86.098067   -203.80427       0.2805 
   11240    851383.82    497.36676   -440.03415    116.66312     84.77335    86.085989    440.03415        0.281 
   11260    851887.58    498.95883   -296.51297    116.70865    84.745604    86.131508    296.51297       0.2815 
   11280    852793.19     499.4626   -687.30185    116.75419    84.713712     86.22189    687.30185        0.282 
   11300    852487.74    499.11895   -239.51803    116.79972    84.676478     86.19529    239.51803       0.2825 
   11320    852349.46    501.23896    129.14902    116.84526      84.6492    86.175484   -129.14902        0.283 
   11340    852293.31    500.71104   -482.21654     116.8908    84.592029    86.194454    482.21654       0.2835 
   11360    851678.89    501.68883   -174.29841    116.93633    84.510831    86.181499    174.29841        0.284 
   11380    852389.94    501.52717    101.17188    116.98187     84.53888    86.191268   -101.17188       0.2845 
   11400    851959.84    501.38892     -257.204     117.0274    84.484071    86.170124      257.204        0.285 
   11420    851404.99    500.69528    -433.8589    117.07294    84.385566    86.180993     433.8589       0.2855 
   11440    851437.14    501.96812   -542.07106    117.11848    84.348453    86.188645    542.07106        0.286 
   11460    851797.53     501.0216    -229.8126    117.16401    84.350002    86.190032     229.8126       0.2865 
   11480     851247.1     502.0503    170.69631    117.20955     84.28915    86.163033   -170.69631        0.287 
   11500    850146.58    501.68571    490.02283    117.25508    84.268097    86.039711   -490.02283       0.2875 
   11520    851250.37    499.59931   -414.84039    117.30062    84.330738    86.054008    414.84039        0.288 
   11540     852151.9    500.78562   -734.05036    117.34616    84.337579    86.104731    734.05036       0.2885 
   11560    851659.23    501.96025   -9.6504706    117.39169      84.3081    86.051648    9.6504706        0.289 
   11580     852819.3    496.99924   -413.09632    117.43723    84.415484    86.025879    413.09632       0.2895 
   11600    853431.15    501.03612    106.26126    117.48276     84.47537    85.993224   -106.26126         0.29 
   11620    853442.44    500.06317   -258.48164     117.5283    84.500052    85.935934    258.48164       0.2905 
   11640    853410.16     500.0444   -127.20498    117.57384    84.507572     85.89176    127.20498        0.291 
   11660    853500.86    498.98773   -228.64399    117.61937    84.526928    85.847968    228.64399       0.2915 
   11680    853406.81    501.30179   -266.09507    117.66491    84.512105    85.820339    266.09507        0.292 
   11700    854817.27    499.58992    -258.5232    117.71044    84.574063    85.865972     258.5232       0.2925 
   11720     855784.5    501.26023   -41.870167    117.75598    84.547693     85.95669    41.870167        0.293 
   11740     855480.7    499.41103   -274.22873    117.80152    84.461211     85.98091    274.22873       0.2935 
   11760    855013.13     499.4552    236.21702    117.84705    84.426505    85.936023   -236.21702        0.294 
   11780    857293.94     499.3504   -626.15235    117.89259    84.569276    85.986573    626.15235       0.2945 
   11800     857179.5    499.93395   -244.93464    117.93812    84.519674    85.992337    244.93464        0.295 
   11820    856274.41     499.1166    315.04315    117.98366    84.468654    85.920249   -315.04315       0.2955 
   11840    856486.88    497.22468   -100.92575     118.0292    84.503962    85.872518    100.92575        0.296 
   11860    857550.48    499.20843   -628.56754    118.07473    84.576086    85.872706    628.56754       0.2965 
   11880     857150.6      499.669   -87.556152    118.12027    84.534425    85.841858    87.556152        0.297 
   11900    857373.55    499.82824    -123.2312     118.1658    84.538008    85.827459     123.2312       0.2975 
   11920    857873.29     499.1175    10.521063    118.21134    84.560722    85.821346   -10.521063        0.298 
   11940    858354.43     499.9384   -535.65893    118.25688    84.547495    85.849844    535.65893       0.2985 
   11960    858567.06     500.0516   -230.86186    118.30241    84.522164    85.863783    230.86186        0.299 
   11980    858867.69    499.02971    -32.31941    118.34795    84.540891     85.84178     32.31941       0.2995 
   12000    857921.73    499.53004    220.87992    118.39348    84.459294    85.797063   -220.87992          0.3 
   12020    857897.43    500.71811   -124.76299    118.43902    84.412497    85.809193    124.76299       0.3005 
   12040    858423.01    500.01287   -674.83515    118.48456    84.393602    85.847981    674.83515        0.301 
   12060    856952.61    500.78471   -141.05135    118.53009    84.326303    85.736377    141.05135       0.3015 
   12080    856656.17     501.1416    187.00634    118.57563    84.299901    85.700638   -187.00634        0.302 
   12100    858693.84    501.50888   -170.73197    118.62116    84.343817    85.826799    170.73197       0.3025 
   12120     859466.3     500.2868   -267.13302     118.6667    84.322548    85.892703    267.13302        0.303 
   12140    858826.21    501.36302    17.861254    118.71223    84.286529    85.832477   -17.861254       0.3035 
   12160    860106.07    499.47572      -717.62    118.75777     84.30235    85.911301       717.62        0.304 
   12180    859455.12    497.60469    196.35501    118.80331    84.164483    85.953945   -196.35501       0.3045 
   12200    859604.25    499.50961   -321.39522    118.84884    84.141567    85.959326    321.39522        0.305 
   12220     860289.8    499.58336   -159.07373    118.89438    84.125131    86.011733    159.07373       0.3055 
   12240    860686.56    498.72012   -250.22347    118.93991    84.102252    86.041857    250.22347        0.306 
   12260    859820.14    499.13418    68.374757    118.98545    84.062575    85.962901   -68.374757       0.3065 
   12280    859660.45    499.23878   -32.749021    119.03099    83.985526    85.992875    32.749021        0.307 
   12300    858971.04    500.87519   -209.51186    119.07652    83.917918    85.960252    209.51186       0.3075 
   12320    859173.85    498.36497   -489.80399    119.12206    84.002431     85.86121    489.80399        0.308 
   12340    859473.32    499.46193   -258.63461    119.16759    84.035365    85.824669    258.63461       0.3085 
   12360    858875.82    501.10437   -208.40797    119.21313    83.977178    85.791647    208.40797        0.309 
   12380    857619.46    499.14891   -112.19373    119.25867    83.944435    85.666843    112.19373       0.3095 
   12400    857600.21    501.45061   -129.09404     119.3042    83.901207    85.676344    129.09404         0.31 
   12420     857371.6    501.28707   -122.45499    119.34974    83.859978    85.662922    122.45499       0.3105 
   12440    857564.21    498.07312   -261.74281    119.39527    83.930111    85.577917    261.74281        0.311 
   12460    856889.84    501.06024    18.074857    119.44081    83.894369    85.514437   -18.074857       0.3115 
   12480    857173.52    497.28225     1.208224    119.48635    83.868179     85.53685    -1.208224        0.312 
   12500    857627.78    498.93005   -243.36049    119.53188    83.907798    85.509183    243.36049       0.3125 
   12520    857696.72    497.60862   -216.04336    119.57742    83.862683    85.529479    216.04336        0.313 
   12540    857664.05    498.58435   -181.57447    119.62295      83.8817    85.474282    181.57447       0.3135 
   12560    858518.58    497.11851   -287.72281    119.66849    83.897788    85.510487    287.72281        0.314 
   12580    858401.02     498.6463   -282.98467    119.71403    83.858036     85.50677    282.98467       0.3145 
   12600    858218.44    497.88196   -139.97887    119.75956    83.841606    85.472824    139.97887        0.315 
   12620     858569.1    497.56104   -406.59364     119.8051    83.873392    85.442855    406.59364       0.3155 
   12640     857948.5    499.26806   -398.12561    119.85063    83.813388    85.409757    398.12561        0.316 
   12660     856795.2    501.05654   -209.57923    119.89617    83.739862    85.337414    209.57923       0.3165 
   12680    856086.99    500.22092   -3.0925007    119.94171    83.645782     85.33037    3.0925007        0.317 
   12700    855611.49    501.87314    195.20761    119.98724    83.531592     85.36715   -195.20761       0.3175 
   12720    856161.92     502.5579    -47.55523    120.03278    83.535815    85.385345     47.55523        0.318 
   12740    856628.43    501.64125   -56.443104    120.07831     83.58061    85.353703    56.443104       0.3185 
   12760    856550.99    502.62766   -292.00016    120.12385    83.602542    85.291254    292.00016        0.319 
   12780    857024.39    499.79299   -588.26432    120.16939    83.600608    85.308029    588.26432       0.3195 
   12800    856625.39    502.51218    1.1838436    120.21492    83.601698    85.234902   -1.1838436         0.32 
   12820    857605.15    501.42149   -243.97204    120.26046    83.629383     85.27184    243.97204       0.3205 
   12840    857689.63    502.34905     25.14004    120.30599    83.612878     85.26479    -25.14004        0.321 
   12860    857184.67    500.58266   -19.838902    120.35153    83.657345    85.137071    19.838902       0.3215 
   12880    858390.13    501.49486   -376.53161    120.39707    83.717153     85.16367    376.53161        0.322 
   12900    859122.49    498.98173    -246.5721     120.4426    83.646743    85.275824     246.5721       0.3225 
   12920    858671.28    499.38613    32.076904    120.48814      83.6716    85.173515   -32.076904        0.323 
   12940    860181.94    501.01776   -236.84773    120.53367    83.795739    85.164773    236.84773       0.3235 
   12960    860067.61    498.66008   -482.29602    120.57921    83.801448    85.115497    482.29602        0.324 
   12980     859323.6    498.36558   -220.33963    120.62475    83.797917    85.013345    220.33963       0.3245 
   13000    859808.25    500.82392    211.73848    120.67028    83.823902    85.002835   -211.73848        0.325 
   13020    861154.73    498.86723   -461.93021    120.71582    83.854914    85.072363    461.93021       0.3255 
   13040       860677    498.93292   -291.16374    120.76135    83.806194    85.042518    291.16374        0.326 
   13060    861519.87    499.91521   -543.54368    120.80689    83.815179    85.084592    543.54368       0.3265 
[...]
   36740    976122.33    503.50818    51.969516    174.72146    73.465225    76.045967   -51.969516       0.9185 
   36760     977000.8    504.88712   -359.66635      174.767    73.502779    76.055695    359.66635        0.919 
   36780       977266    504.40653   -228.53176    174.81253    73.560631    75.996709    228.53176       0.9195 
   36800    976365.08    502.89494    39.078156    174.85807    73.509837    75.959326   -39.078156         0.92 
   36820    976639.03     503.0193   -190.46913     174.9036    73.464993    76.007226    190.46913       0.9205 
   36840    976614.55    502.57448   -27.833731    174.94914     73.45431    75.996588    27.833731        0.921 
   36860    977066.27    502.94102   -139.25622    174.99468     73.48441     75.98082    139.25622       0.9215 
   36880    977013.71    502.70082    100.37788    175.04021     73.52606    75.913941   -100.37788        0.922 
   36900    975699.54    501.29006    88.802024    175.08575    73.445567    75.875177   -88.802024       0.9225 
   36920    975320.76    502.74408   -52.878749    175.13128    73.335664    75.939636    52.878749        0.923 
   36940    975179.57    503.43862   -330.56348    175.17682    73.294519    75.951518    330.56348       0.9235 
   36960    974430.15     502.4656    -339.5476    175.22236    73.267357    75.901555     339.5476        0.924 
   36980    974132.97    501.12556   -2.9658614    175.26789    73.266188    75.859903    2.9658614       0.9245 
   37000    975399.67     503.2822   -79.109614    175.31343    73.301953    75.901765    79.109614        0.925 
   37020    976269.54    500.86541   -90.660831    175.35896    73.356731    75.893014    90.660831       0.9255 
   37040    976362.88    498.90026    85.978858     175.4045    73.383633    75.852749   -85.978858        0.926 
   37060    975649.14     499.5012   -378.77703    175.45003     73.39106    75.769959    378.77703       0.9265 
   37080    975737.43    499.36893   -587.22859    175.49557    73.327074    75.823259    587.22859        0.927 
   37100    976244.14    500.11126   -233.19377    175.54111    73.352987    75.816164    233.19377       0.9275 
   37120    976170.84    500.82488   -55.986557    175.58664    73.358213    75.785411    55.986557        0.928 
   37140     976768.4    499.74767   -45.521714    175.63218    73.365928     75.80417    45.521714       0.9285 
   37160    977928.49    499.25323   -87.368117    175.67771    73.434936    75.803228    87.368117        0.929 
   37180    977918.57    500.17227   -237.31979    175.72325    73.469054    75.747624    237.31979       0.9295 
   37200    977810.14    499.55855    294.42028    175.76879    73.455907    75.733157   -294.42028         0.93 
   37220    979332.72    498.45004   -302.00749    175.81432    73.542861    75.741778    302.00749       0.9305 
   37240    979297.67    498.09963   -129.50576    175.85986    73.544456    75.717813    129.50576        0.931 
   37260    979310.71     499.5599   -275.05484    175.90539    73.541706    75.702051    275.05484       0.9315 
   37280    979321.65    498.31831   -356.29456    175.95093    73.532768    75.692504    356.29456        0.932 
   37300    978686.87     498.7948    176.48285    175.99647    73.476855    75.681417   -176.48285       0.9325 
   37320    978408.57    498.54006   -201.01036      176.042    73.485264    75.631671    201.01036        0.933 
   37340    977988.06    500.85269   -78.333248    176.08754     73.53999    75.523371    78.333248       0.9335 
   37360    978719.69    501.35308    -166.6468    176.13307    73.621696    75.476472     166.6468        0.934 
   37380    978856.96    501.13717   -188.06928    176.17861    73.626802    75.462314    188.06928       0.9345 
   37400     978272.2    502.61904   -178.64516    176.22415    73.597227    75.428044    178.64516        0.935 
   37420    978413.41    499.36743   -112.37071    176.26968    73.575383    75.441835    112.37071       0.9355 
   37440     978968.6    501.42116   -454.91949    176.31522     73.59668    75.443311    454.91949        0.936 
   37460    978122.94    502.28363    242.04914    176.36075    73.561873    75.394335   -242.04914       0.9365 
   37480    978251.09    501.60068    39.935905    176.40629    73.577644    75.368591   -39.935905        0.937 
   37500    977827.99    502.50897   -176.61841    176.45183    73.549034    75.345849    176.61841       0.9375 
   37520    977359.53    501.77248   -67.648064    176.49736    73.495816     75.34484    67.648064        0.938 
   37540    978129.47    500.60769   -270.33227     176.5429    73.492165    75.388491    270.33227       0.9385 
   37560    977732.93    501.91943   -117.41401    176.58843     73.43098     75.40127    117.41401        0.939 
   37580     975875.7    500.70591    167.78818    176.63397    73.333439    75.338718   -167.78818       0.9395 
   37600    975577.83    500.66094   -437.78304    176.67951    73.290729    75.340189    437.78304         0.94 
   37620    974483.77    501.39391   -57.531523    176.72504    73.251496    75.276604    57.531523       0.9405 
   37640    973806.84    498.62079    306.99516    176.77058    73.160341    75.298638   -306.99516        0.941 
   37660    975427.27     501.6513    -362.1716    176.81611    73.102645    75.464024     362.1716       0.9415 
   37680    975731.12    501.03414   -277.60834    176.86165    73.045399    75.527241    277.60834        0.942 
   37700    976389.73    499.97096   -133.22296    176.90719    73.080585    75.522388    133.22296       0.9425 
   37720    976399.26    497.49823     76.16579    176.95272     73.02877    75.557262    -76.16579        0.943 
   37740    976818.35    499.90318   -482.50625    176.99826    73.062122    75.535749    482.50625       0.9435 
   37760    976430.28    497.60582   -111.90951    177.04379    73.064243    75.484128    111.90951        0.944 
   37780    977403.47     499.3745   -63.996896    177.08933    73.125897    75.476243    63.996896       0.9445 
   37800    978179.27    499.33748     35.44657    177.13487    73.145867    75.496116    -35.44657        0.945 
   37820    978736.63    498.37982    99.160481     177.1804    73.140921    75.524827   -99.160481       0.9455 
   37840    979729.23    501.01473   -274.31645    177.22594    73.180154    75.541476    274.31645        0.946 
   37860    980315.63    501.31073   -436.31205    177.27147    73.162743    75.585257    436.31205       0.9465 
   37880    980081.71    499.46558    156.98005    177.31701    73.140047    75.571258   -156.98005        0.947 
   37900    980898.32    502.04576   -115.03341    177.36255    73.160679    75.593482    115.03341       0.9475 
   37920    980343.11    501.86011    71.369444    177.40808     73.12899    75.564033   -71.369444        0.948 
   37940    979932.32    498.54737   -89.443459    177.45362    73.030423    75.614905    89.443459       0.9485 
   37960    980180.39    501.78594   -312.01863    177.49915    73.027697    75.617466    312.01863        0.949 
   37980    980471.64     499.4092   -66.006109    177.54469    72.988455    75.661192    66.006109       0.9495 
   38000    980438.53    499.90668   -114.50147    177.59022    72.962975    75.665653    114.50147         0.95 
   38020    980647.69    502.81343     59.50627    177.63576    72.967802    75.657388    -59.50627       0.9505 
   38040    981472.32    499.77776   -225.01488     177.6813    72.996104    75.672252    225.01488        0.951 
   38060    981340.21    500.66017   -434.42386    177.72683    72.963257    75.676734    434.42386       0.9515 
   38080    980840.02    500.28877    15.564308    177.77237    72.984785    75.596482   -15.564308        0.952 
   38100    980963.39    499.97904   -490.68538     177.8179    73.086309    75.481632    490.68538       0.9525 
   38120    979667.23    499.20098    -67.15284    177.86344    73.058795     75.39098     67.15284        0.953 
   38140    980235.56    499.63719   -118.63841    177.90898    73.066981    75.406959    118.63841       0.9535 
   38160    980999.83    499.43899   -382.50316    177.95451    73.133341    75.377983    382.50316        0.954 
   38180    980017.93    499.09657    33.545333    178.00005    73.092581    75.325253   -33.545333       0.9545 
   38200    979740.02     499.2596   -109.23925    178.04558    73.072362    75.305465    109.23925        0.955 
   38220    979635.14    499.34082    -284.0516    178.09112    73.100633    75.249038     284.0516       0.9555 
   38240    978775.16    500.08064    27.950465    178.13666    73.067892    75.197441   -27.950465        0.956 
   38260    978944.93    497.88522   -31.972223    178.18219    73.043219    75.216663    31.972223       0.9565 
   38280    979027.82    498.91914    -297.8637    178.22773     73.03215     75.21521     297.8637        0.957 
   38300    978986.15    499.43335   -138.03591    178.27326    72.994621    75.231457    138.03591       0.9575 
   38320    979642.44    499.43476   -80.439516     178.3188    73.003267    75.253753    80.439516        0.958 
   38340    980058.56    498.69391    29.023962    178.36434    72.996627    75.273344   -29.023962       0.9585 
   38360    979333.87    498.19135    102.72614    178.40987    72.925005    75.272342   -102.72614        0.959 
   38380    979053.14    499.44132   -24.422384    178.45541    72.872991    75.285261    24.422384       0.9595 
   38400    979947.83    498.99004   -665.88816    178.50094    72.938745    75.266921    665.88816         0.96 
   38420     978714.1    499.75579   -447.88175    178.54648    72.917307    75.175085    447.88175       0.9605 
   38440    977300.98    500.74978      302.308    178.59202    72.800148     75.16818     -302.308        0.961 
   38460    978206.59     500.6741   -225.06375    178.63755    72.787482    75.231744    225.06375       0.9615 
   38480    977791.21    503.18483   -65.054983    178.68309    72.782442     75.18584    65.054983        0.962 
   38500    977265.35    501.25687    14.869431    178.72862    72.809364    75.098481   -14.869431       0.9625 
   38520    978149.68     502.8513   -391.57807    178.77416    72.838373    75.117364    391.57807        0.963 
   38540    977413.08    501.56342   -101.40362     178.8197     72.81744    75.063254    101.40362       0.9635 
   38560    977360.18    502.27483   -391.69522    178.86523    72.794442     75.06379    391.69522        0.964 
   38580    976162.02    501.76744    -342.1095    178.91077    72.698559    75.051543     342.1095       0.9645 
   38600    975432.48    503.81915   -32.860711     178.9563    72.661954    75.014141    32.860711        0.965 
   38620    975694.22    502.53099    171.89169    179.00184    72.661451    75.015701   -171.89169       0.9655 
   38640    976974.63    502.27122   -319.58477    179.04738    72.634874    75.122519    319.58477        0.966 
   38660    977075.77    502.52774   -159.74752    179.09291    72.627384    75.118939    159.74752       0.9665 
   38680    976748.35     501.6883   -189.96915    179.13845     72.64294    75.058601    189.96915        0.967 
   38700    976355.66     502.7825    185.49037    179.18398      72.6232    75.029747   -185.49037       0.9675 
   38720    977931.12    501.87151    114.71069    179.22952    72.697779    75.054646   -114.71069        0.968 
   38740     979428.2    502.76268   -333.46447    179.27506    72.686382    75.162235    333.46447       0.9685 
   38760     977553.9    500.62921   -8.8305542    179.32059    72.577886    75.111466    8.8305542        0.969 
   38780    978512.11    501.32952    -272.3634    179.36613    72.638978    75.102786     272.3634       0.9695 
   38800    978693.04    498.17866    355.40778    179.41166    72.622608    75.114536   -355.40778         0.97 
   38820    979466.96     501.3524    -229.2106     179.4572    72.622468    75.155004     229.2106       0.9705 
   38840     979038.2    497.88937   -196.85098    179.50273    72.634295    75.090819    196.85098        0.971 
   38860     979970.8    501.17621   -302.96866    179.54827    72.717323    75.057488    302.96866       0.9715 
   38880    979433.44    500.56469    325.32621    179.59381    72.704302    75.010741   -325.32621        0.972 
   38900    980299.39    499.75545    44.463671    179.63934    72.721865    75.039903   -44.463671       0.9725 
   38920     979980.8    499.07166    4.2598211    179.68488    72.664773     75.05543   -4.2598211        0.973 
   38940    979274.06    499.86947   -384.32737    179.73041    72.636951     75.01102    384.32737       0.9735 
   38960    978928.16    500.30325    293.83782    179.77595    72.639114    74.963298   -293.83782        0.974 
   38980    980865.31    498.30253   -44.018179    179.82149    72.644331    75.087226    44.018179       0.9745 
   39000    980883.46    499.38174   -305.60692    179.86702    72.586243    75.129681    305.60692        0.975 
   39020    980612.66    500.61101    -445.6951    179.91256    72.588043    75.088067     445.6951       0.9755 
   39040    981424.98    499.73881   -184.91952    179.95809    72.585093    75.134306    184.91952        0.976 
   39060    982202.45    500.53659    46.192025    180.00363     72.56968    75.190771   -46.192025       0.9765 
   39080    982158.17    500.50153    278.20739    180.04917     72.59326    75.143949   -278.20739        0.977 
   39100    982692.81    498.82385   -453.83379     180.0947    72.610694    75.147798    453.83379       0.9775 
   39120    981735.55     499.8655   -157.15422    180.14024    72.540601    75.128139    157.15422        0.978 
   39140    980904.41    502.13923   -144.43784    180.18577    72.489339    75.098636    144.43784       0.9785 
   39160    980772.19    500.53174    371.05568    180.23131    72.509905    75.048249   -371.05568        0.979 
   39180    980807.33    503.66858   -250.20328    180.27685    72.530968    75.010193    250.20328       0.9795 
   39200    980277.76    500.93102   -313.87407    180.32238    72.505812    74.976764    313.87407         0.98 
   39220    980860.43    502.21954   -137.34077    180.36792    72.463189    75.046506    137.34077       0.9805 
   39240     980579.1     500.3526   -132.75203    180.41345    72.438083    75.032042    132.75203        0.981 
   39260    980068.43     502.7539   -122.90675    180.45899    72.455488    74.956033    122.90675       0.9815 
   39280    981091.19    501.99932    13.539658    180.50453    72.498081    74.971253   -13.539658        0.982 
   39300    981914.84    504.10636   -233.86961    180.55006    72.523549    74.988926    233.86961       0.9825 
   39320    981765.29    502.39755   -80.348751     180.5956    72.557766     74.92325    80.348751        0.983 
   39340    982846.51    502.78978   -272.45719    180.64113    72.637962    74.904067    272.45719       0.9835 
   39360    983192.42    502.70874   -241.13705    180.68667    72.667743    74.880845    241.13705        0.984 
   39380    983799.22    501.61259   -288.22794    180.73221    72.652057    74.924355    288.22794       0.9845 
   39400    983735.77    500.43904    278.24321    180.77774    72.657653    74.894882   -278.24321        0.985 
   39420    984532.55    500.28689   -74.117595    180.82328    72.730736    74.861368    74.117595       0.9855 
   39440    984018.28    501.95512   -172.07915    180.86881    72.717087    74.817467    172.07915        0.986 
   39460    983237.84     497.6688   -234.68598    180.91435    72.678769    74.778717    234.68598       0.9865 
   39480    984062.68    500.23976   -367.74177    180.95989    72.716228    74.784071    367.74177        0.987 
   39500    984907.72    499.08289    -198.0293    181.00542    72.764172    74.780156     198.0293       0.9875 
   39520    984228.89    498.98065    105.81969    181.05096    72.758592     74.71555   -105.81969        0.988 
   39540    983848.63    500.64555   -68.774847    181.09649    72.744142    74.682736    68.774847       0.9885 
   39560     984079.2    498.97043   -260.83717    181.14203    72.762337    74.662785    260.83717        0.989 
   39580    983095.73    498.59722   -19.213829    181.18757    72.687575    74.646121    19.213829       0.9895 
   39600    982346.97    499.47492   -72.098583     181.2331    72.609302    74.650914    72.098583         0.99 
   39620     983457.7    500.25378   -453.61841    181.27864    72.645327    74.679496    453.61841       0.9905 
   39640    982778.64    498.29564    108.07019    181.32417     72.56826    74.688424   -108.07019        0.991 
   39660    983419.83    500.32433   -92.458521    181.36971    72.519807     74.76831    92.458521       0.9915 
   39680    984201.29    501.82212   -441.80018    181.41525    72.548932    74.778909    441.80018        0.992 
   39700    982477.91     500.9551    305.08419    181.46078    72.495957    74.683769   -305.08419       0.9925 
   39720    982433.03    500.52262   -3.0866517    181.50632    72.546086    74.610032    3.0866517        0.993 
   39740    983522.57    499.75555   -195.39673    181.55185    72.629943    74.587824    195.39673       0.9935 
   39760    982739.93    499.14341   -21.278157    181.59739    72.624737    74.515124    21.278157        0.994 
   39780    983218.21     497.5346   -518.79707    181.64292    72.629211    74.528109    518.79707       0.9945 
   39800    983592.67    497.25814   -176.10103    181.68846    72.603078    74.564636    176.10103        0.995 
   39820    983382.11    498.54377    95.831251      181.734    72.545048    74.589613   -95.831251       0.9955 
   39840    983979.14    499.09214   -210.97485    181.77953    72.618507    74.540722    210.97485        0.996 
   39860    984818.61    498.14554   -277.10301    181.82507    72.693627    74.508557    277.10301       0.9965 
   39880     985507.7    496.49637   -14.926775     181.8706    72.703465    74.531936    14.926775        0.997 
   39900    986213.84    499.53418    63.722795    181.91614    72.705177    74.564914   -63.722795       0.9975 
   39920    986511.18    498.89751    -268.0689    181.96168    72.735732    74.537405     268.0689        0.998 
   39940    984543.64    498.67671    -172.5047    182.00721    72.686135    74.420879     172.5047       0.9985 
   39960    983679.68    499.67983   -208.20393    182.05275    72.676022    74.347319    208.20393        0.999 
   39980    983645.87    499.64533    6.6203133    182.09828    72.726152     74.27494   -6.6203133       0.9995 
   40000    982012.74    501.30383    389.68772    182.14382    72.680755    74.179388   -389.68772            1 
Loop time of 2640.51 on 64 procs for 40000 steps with 72040 atoms

Performance: 1.309 ns/day, 18.337 hours/ns, 15.149 timesteps/s
99.7% CPU use with 64 MPI tasks x 1 OpenMP threads

MPI task timing breakdown:
Section |  min time  |  avg time  |  max time  |%varavg| %total
---------------------------------------------------------------
Pair    | 570.56     | 789.89     | 1004.5     | 394.9 | 29.91
Bond    | 40.222     | 49.909     | 59.135     |  64.4 |  1.89
Kspace  | 102.14     | 323.56     | 552.66     | 642.1 | 12.25
Neigh   | 1388.1     | 1392.7     | 1398.7     |   8.4 | 52.74
Comm    | 60.784     | 67.869     | 73.418     |  42.7 |  2.57
Output  | 1.1868     | 1.196      | 1.228      |   0.5 |  0.05
Modify  | 11.609     | 12.862     | 14.502     |  20.1 |  0.49
Other   |            | 2.536      |            |       |  0.10

Nlocal:        1125.62 ave        1430 max         658 min
Histogram: 3 3 8 6 5 3 4 8 12 12
Nghost:        13465.2 ave       15353 max       10924 min
Histogram: 2 7 11 9 3 0 0 1 16 15
Neighs:       754463.0 ave 1.08876e+06 max      354406 min
Histogram: 9 7 4 4 7 1 2 7 12 11

Total # of neighbors = 48285620
Ave neighs/atom = 670.26124
Ave special neighs/atom = 5.9972238
Neighbor list builds = 40000
Dangerous builds not checked
Total wall time: 0:44:04
