LAMMPS (29 Oct 2020)
OMP_NUM_THREADS environment is not set. Defaulting to 1 thread. (../comm.cpp:94)
  using 1 OpenMP thread(s) per MPI task
####################################################
#    This program is free software: you can redistribute it and/or modify
#    it under the terms of the GNU General Public License as published by
#    the Free Software Foundation, either version 3 of the License, or
#    (at your option) any later version.
#
#    This program is distributed in the hope that it will be useful,
#    but WITHOUT ANY WARRANTY; without even the implied warranty of
#    MERCHANTABILITY or FITNESS FOR A PARTICULAR PURPOSE.  See the
#    GNU General Public License for more details.


units		real        ## defines the units style used herein. More information: https://docs.lammps.org/units.html
atom_style	full        ## defines the atom style used herein. More information: https://docs.lammps.org/atom_style.html

# Styles
pair_style      lj/cut/coul/long 15.0 10.0      ## sets the formula(s) LAMMPS uses to compute pairwise interactions; here, lennard-jones (LJ) with long-range Coulomb interaction. More: https://docs.lammps.org/pair_lj_cut_coul.html
pair_modify     shift no                        ## the shift keyword determines whether a Lennard-Jones potential is shifted at its cutoff to 0.0. More: https://docs.lammps.org/pair_modify.html
kspace_style    pppm 1.0e-4                     ## defines a long-range solver for LAMMPS to compute long-range Coulombic interactions. Note: requires use of a matching pair style, i.e. PPPM with coul/long. More: https://docs.lammps.org/kspace_style.html
bond_style      harmonic                        ## defined based off the forcefield used to construct the system; models the atoms' interactions
angle_style     harmonic
dihedral_style  opls
improper_style  cvff
special_bonds   lj 0 0 1 coul 0 0 1

read_data       100K_PMP.lmps      ## input lammps datafile, equilibriated until structure nears experimental properties
Reading data file ...
  orthogonal box = (82.411864 82.411864 82.411864) to (167.58814 167.58814 167.58814)
  4 by 4 by 4 MPI processor grid
  reading atoms ...
  72040 atoms
  reading velocities ...
  72040 velocities
  scanning bonds ...
  2 = max bonds/atom
  scanning angles ...
  6 = max angles/atom
  scanning dihedrals ...
  15 = max dihedrals/atom
  reading bonds ...
  72020 bonds
  reading angles ...
  143880 angles
  reading dihedrals ...
  215640 dihedrals
Finding 1-2 1-3 1-4 neighbors ...
  special bond factors lj:    0.0      0.0      1.0     
  special bond factors coul:  0.0      0.0      1.0     
     4 = max # of 1-2 neighbors
     9 = max # of 1-3 neighbors
    13 = max # of special neighbors
  special bonds CPU = 1.598 seconds
  read_data CPU = 3.578 seconds

dielectric      1.0
neighbor    	1.0 bin
neigh_modify	delay 0 every 1 check no        ## this is to make sure that the neighbor list is updated every timestep, and the atoms don't get lost as the system is being deformed ##

timestep	    1.0                             ## unit = fs, per "real" unit style
run_style       verlet                          ## defines algorithm used for simulation computation; verlet integration is a numerical method used to integrate Newton's equations of motion.

variable stress equal press*-1                         ## computes stress as the negative of press values
variable engStrain equal (lx-91.07191)/91.07191        ## computes engineering strain; lx_0 must be found and inputted manually (for now)

thermo		    20                                                               ## output log data (headers in thermo_style), recorded at every timestep in numList.txt
thermo_style    custom step vol temp press lx ly lz v_stress v_engStrain         ## data headers of output log file. More: https://docs.lammps.org/thermo_style.html

################# Deformation ##################

fix 1 all npt temp 100 100 100 y 1 1 100.0 z 1 1 100.0      ## stress normal to the x direction can vary; external pressure (y and z) = 1atm ##

fix 2 all deform 1 x scale 2.0 remap x                      ## sets a uniaxial (x-direction) deformation in motion, scaling a set amount (here, 4.0x) the initial length


################# Dumping ##################

reset_timestep 0

dump dump2 all custom 20000 sim.lammpstrj id mol type q xs ys zs ix iy iz

restart 40000 PMP.restart

run 		400000              ## this depends on the overall strain rate, where strain rate = deformScale / runTimeSteps (consider units!)
PPPM initialization ...
  using 12-bit tables for long-range coulomb (../kspace.cpp:328)
  G vector (1/distance) = 0.20855304
  grid = 24 24 24
  stencil order = 5
  estimated absolute RMS force accuracy = 0.019795394
  estimated relative force accuracy = 5.9613242e-05
  using double precision FFTW3
  3d grid and FFT values/proc = 1331 216
Neighbor list info ...
  update every 1 steps, delay 0 steps, check no
  max neighbors/atom: 2000, page size: 100000
  master list distance cutoff = 16
  ghost atom cutoff = 16
  binsize = 8, bins = 11 11 11
  1 neighbor lists, perpetual/occasional/extra = 1 0 0
  (1) pair lj/cut/coul/long, perpetual
      attributes: half, newton on
      pair build: half/bin/newton
      stencil: half/bin/3d/newton
      bin: standard
Per MPI rank memory allocation (min/avg/max) = 32.44 | 32.78 | 33.22 Mbytes
Step Volume Temp Press Lx Ly Lz v_stress v_engStrain 
       0     617953.6    99.928272    4326.2873    85.176271    85.176271    85.176271   -4326.2873 -0.064736086 
      20    621778.85     102.0836    2001.3346     85.18053    85.414366    85.460353   -2001.3346 -0.064689322 
      40    622373.01    101.79959    884.17889    85.184789    85.426221    85.525871   -884.17889 -0.064642559 
      60    620456.56    101.27478    429.85094    85.189047    85.313169     85.37123   -429.85094 -0.064595796 
      80    619403.27    101.42267    711.00177    85.193306    85.223229    85.311983   -711.00177 -0.064549033 
     100    618079.17    101.22316    747.53581    85.197565    85.120796    85.227794   -747.53581  -0.06450227 
     120    618936.16    101.35955     573.9537    85.201824     85.17975    85.282634    -573.9537 -0.064455506 
     140    619664.41    101.19561   -140.63739    85.206083    85.215269    85.343125    140.63739 -0.064408743 
     160    618279.64    101.08124   -72.880283    85.210342    85.116523    85.246933    72.880283  -0.06436198 
     180    619225.35    100.70761    205.82804      85.2146    85.162148    85.327321   -205.82804 -0.064315217 
     200    619804.69    100.57387    141.40223    85.218859    85.203786    85.361148   -141.40223 -0.064268454 
     220    619476.83    100.51359    355.79564    85.223118    85.178708    85.336849   -355.79564  -0.06422169 
     240    620553.95    100.56799   -464.95286    85.227377    85.260787    85.398665    464.95286 -0.064174927 
     260    619913.42    100.26001   -164.59599    85.231636    85.229094    85.337977    164.59599 -0.064128164 
     280    620274.64    99.994974    -155.3675    85.235894    85.259999    85.352486     155.3675 -0.064081401 
     300    620433.74    100.12502    -31.95369    85.240153    85.251637    85.378487     31.95369 -0.064034638 
     320    620116.22    100.11186   -187.53623    85.244412    85.214849    85.367368    187.53623 -0.063987874 
     340     620760.5    100.08883   -171.01855    85.248671    85.244641    85.421928    171.01855 -0.063941111 
     360    620980.73    99.868448   -456.50226     85.25293    85.240739    85.451876    456.50226 -0.063894348 
     380    620423.56    99.738316   -221.06541    85.257188    85.174798    85.437034    221.06541 -0.063847585 
     400    620452.01    99.656422   -257.65203    85.261447    85.182342    85.429117    257.65203 -0.063800822 
     420    620882.02    100.03061   -125.66218    85.265706    85.183022    85.483372    125.66218 -0.063754058 
     440    621051.34    99.780028   -66.148373    85.269965     85.17807    85.507384    66.148373 -0.063707295 
     460    620993.99    99.883446   -334.90484    85.274224    85.197371     85.47585    334.90484 -0.063660532 
     480    620970.41     99.54168   -146.03182    85.278483    85.183863    85.481888    146.03182 -0.063613769 
     500     620987.1     99.78808    -105.7391    85.282741    85.194251    85.469495     105.7391 -0.063567006 
     520    621172.98    99.742929   -71.326951       85.287     85.21839    85.466593    71.326951 -0.063520242 
     540    621402.65     99.75242   -224.56966    85.291259    85.254879    85.457333    224.56966 -0.063473479 
     560    621326.37    99.617181   -38.419164    85.295518    85.261592    85.435849    38.419164 -0.063426716 
     580    621212.25    99.811577   -16.044944    85.299777    85.263913    85.413567    16.044944 -0.063379953 
     600    621276.86    100.04754   -84.679982    85.304035    85.284199    85.397867    84.679982  -0.06333319 
     620    620732.99    99.764841    26.866456    85.308294     85.21916    85.383965   -26.866456 -0.063286427 
     640    620455.25    100.50976    131.10594    85.312553    85.206586    85.354094   -131.10594 -0.063239663 
     660    620962.81     100.1835   -24.936272    85.316812    85.235439    85.390739    24.936272   -0.0631929 
     680    621078.06    100.26942    165.88629    85.321071    85.235974    85.401789   -165.88629 -0.063146137 
     700    621324.15    100.28159    69.249825     85.32533    85.251746    85.415557   -69.249825 -0.063099374 
     720    621352.71    100.17179    119.21533    85.329588    85.284177    85.382739   -119.21533 -0.063052611 
     740    621619.63    99.988702    44.633066    85.333847     85.31646    85.382835   -44.633066 -0.063005847 
     760    621957.65    100.36108   -40.930655    85.338106     85.31342    85.428044    40.930655 -0.062959084 
     780    622010.63    100.31859    53.579627    85.342365    85.284542    85.459985   -53.579627 -0.062912321 
     800    621646.08    100.01725     114.1304    85.346624    85.265613    85.424597    -114.1304 -0.062865558 
     820    621761.57    99.960486    92.365815    85.350882    85.238208    85.463673   -92.365815 -0.062818795 
     840    622097.03    100.36721    30.729226    85.355141    85.259888    85.483774   -30.729226 -0.062772031 
     860    622148.66    99.762877     69.11913      85.3594    85.264796    85.481682    -69.11913 -0.062725268 
     880    622056.34     100.1405    56.396691    85.363659    85.227882    85.501749   -56.396691 -0.062678505 
     900    621708.28    99.891622    18.610995    85.367918    85.213845    85.463722   -18.610995 -0.062631742 
     920    621335.77    100.02677    108.88504    85.372176    85.176178    85.446024   -108.88504 -0.062584979 
     940    621510.49    99.684957   -8.2736654    85.376435    85.197825    85.444073    8.2736654 -0.062538215 
     960    621679.41    99.615944   -52.177497    85.380694    85.250915     85.40981    52.177497 -0.062491452 
     980     621383.5    99.489016   -8.7018636    85.384953    85.235756     85.38008    8.7018636 -0.062444689 
    1000    621375.24    99.813182   -100.75279    85.389212    85.221765    85.388702    100.75279 -0.062397926 
    1020    620990.13    99.625481   -171.38446    85.393471    85.202662    85.350658    171.38446 -0.062351163 
    1040    620346.86    100.04377   -129.04176    85.397729    85.152036    85.308681    129.04176 -0.062304399 
    1060    620469.11    99.815009   -124.25472    85.401988    85.184646    85.288575    124.25472 -0.062257636 
    1080    620606.78    99.815768    85.731409    85.406247    85.155196    85.332747   -85.731409 -0.062210873 
    1100    620459.28    99.688222   -176.93204    85.410506    85.155639    85.307767    176.93204  -0.06216411 
    1120    620305.23    99.656573   -260.70047    85.414765    85.115648    85.322403    260.70047 -0.062117347 
    1140    620690.63    99.956024   -109.41154    85.419023    85.117936    85.368864    109.41154 -0.062070583 
    1160     620863.1    100.05806    -119.8008    85.423282    85.100665    85.405657     119.8008  -0.06202382 
    1180    621127.85    99.759068   -14.180777    85.427541    85.127017    85.411369    14.180777 -0.061977057 
    1200    621379.28    100.29832   -115.85429      85.4318    85.159548    85.409045    115.85429 -0.061930294 
    1220    621393.14      99.9944   -189.20377    85.436059     85.16955    85.396663    189.20377 -0.061883531 
    1240    621401.48    100.28249   -91.801398    85.440317    85.169064    85.394039    91.801398 -0.061836767 
    1260    621258.67    100.37076   -93.999349    85.444576    85.110875    85.428525    93.999349 -0.061790004 
    1280    620966.43    100.34855   -7.0419869    85.448835    85.089681     85.40535    7.0419869 -0.061743241 
    1300    621339.08    100.37086   -150.52988    85.453094    85.111004    85.430935    150.52988 -0.061696478 
    1320    621461.93    100.17413    -140.7767    85.457353    85.114718    85.439841     140.7767 -0.061649715 
    1340    621243.21     100.6346   -22.046226    85.461612    85.116117    85.404111    22.046226 -0.061602951 
    1360    621672.36    99.941976    11.962393     85.46587    85.158398    85.416417   -11.962393 -0.061556188 
    1380     621453.1    100.39865    157.57595    85.470129     85.10741    85.433191   -157.57595 -0.061509425 
    1400    621874.17    100.37041   -103.90317    85.474388    85.158032    85.435999    103.90317 -0.061462662 
    1420    622196.53    99.958787   -64.419455    85.478647    85.167922    85.466102    64.419455 -0.061415899 
    1440    621665.76    100.18464     255.6944    85.482906    85.110625    85.446425    -255.6944 -0.061369135 
    1460    621490.54    99.583146    81.242359    85.487164    85.110595    85.418116   -81.242359 -0.061322372 
    1480    621534.85    100.06148    155.85427    85.491423    85.132808    85.397661   -155.85427 -0.061275609 
    1500    621159.57    99.944091    20.151633    85.495682    85.121147    85.353538   -20.151633 -0.061228846 
    1520    621395.32    100.01465   -80.748626    85.499941    85.146042    85.356716    80.748626 -0.061182083 
    1540    621085.63     99.64067    64.812147      85.5042    85.107836    85.348224   -64.812147 -0.061135319 
    1560    621192.27    100.22508   -73.400388    85.508458    85.105507    85.360962    73.400388 -0.061088556 
    1580    621512.29    99.606988    -80.62627    85.512717    85.091205    85.415039     80.62627 -0.061041793 
    1600    621502.99    99.966116   -62.944326    85.516976     85.09809    85.402597    62.944326  -0.06099503 
    1620    621269.13    100.18102   -133.25072    85.521235    85.027892    85.436686    133.25072 -0.060948267 
    1640    621221.04    99.435613   -108.10211    85.525494    85.034689    85.418991    108.10211 -0.060901504 
    1660    621340.34    99.786466   -149.20922    85.529753    85.051458    85.414297    149.20922  -0.06085474 
    1680    621588.32    100.32759   -248.62959    85.534011    85.082151    85.413308    248.62959 -0.060807977 
    1700    621536.25    99.777752   -89.318214     85.53827    85.110717    85.373238    89.318214 -0.060761214 
    1720    621535.73    99.992733   -251.00429    85.542529    85.137162    85.342398    251.00429 -0.060714451 
    1740    621958.76    100.03726   -160.81383    85.546788    85.146282    85.387086    160.81383 -0.060667688 
    1760    621769.23    99.860714   -89.674062    85.551047    85.143396    85.359711    89.674062 -0.060620924 
    1780    622007.95    100.39752   -90.495977    85.555305    85.142707    85.388922    90.495977 -0.060574161 
    1800    621767.32    99.697037   -124.12092    85.559564     85.11918    85.375233    124.12092 -0.060527398 
    1820     622031.3    99.861476   -152.16188    85.563823    85.106024     85.42043    152.16188 -0.060480635 
    1840    622275.17    100.21557   -179.90617    85.568082    85.114501    85.441157    179.90617 -0.060433872 
    1860    622057.35    99.713822   -136.59372    85.572341    85.111921    85.409587    136.59372 -0.060387108 
    1880    621946.02    100.09934   -87.536266      85.5766    85.080067    85.422021    87.536266 -0.060340345 
    1900    621880.31    100.23279    11.553242    85.580858    85.040647    85.448336   -11.553242 -0.060293582 
    1920    622208.18    99.758841    -33.47865    85.585117    85.065487    85.464168     33.47865 -0.060246819 
    1940    622404.52    100.25101   -215.51005    85.589376    85.080437    85.471863    215.51005 -0.060200056 
    1960    622415.57    100.38654   -113.59719    85.593635    85.088379    85.461149    113.59719 -0.060153292 
    1980    622403.83      100.221   -120.52865    85.597894     85.06647    85.477295    120.52865 -0.060106529 
    2000    622312.15     99.99504   -72.823115    85.602152    85.046511    85.480508    72.823115 -0.060059766 
    2020    622225.23    100.20295    -37.73079    85.606411    85.067546    85.443184     37.73079 -0.060013003 
    2040    622528.99    99.904937   -168.78115     85.61067     85.07214    85.476027    168.78115  -0.05996624 
    2060    622594.95    100.37757   -21.029021    85.614929    85.049597    85.503489    21.029021 -0.059919476 
    2080    622613.45    100.20172   -116.62525    85.619188    85.051927    85.499434    116.62525 -0.059872713 
    2100    622610.52    100.54861   -104.47694    85.623446    85.058794    85.487877    104.47694  -0.05982595 
    2120    622430.67    100.29296   -83.353993    85.627705    85.029076    85.488799    83.353993 -0.059779187 
    2140    622841.79    100.36665   -79.606264    85.631964    85.088449    85.481321    79.606264 -0.059732424 
    2160    622622.81     100.4884    22.971327    85.636223    85.066139    85.469429   -22.971327  -0.05968566 
    2180    622702.83    100.36918   -98.393674    85.640482    85.080787    85.461446    98.393674 -0.059638897 
    2200    622554.06    100.19958    -83.72165    85.644741    85.093747    85.423769     83.72165 -0.059592134 
    2220    621856.07    100.95524    144.01736    85.648999    85.072442    85.345118   -144.01736 -0.059545371 
    2240    622113.58    100.26554   -39.885393    85.653258    85.093724    85.354862    39.885393 -0.059498608 
    2260    621686.58    100.38267    51.553573    85.657517    85.035902    85.350032   -51.553573 -0.059451844 
    2280    621600.57    100.17916    136.61971    85.661776    84.996053    85.373989   -136.61971 -0.059405081 
    2300    621944.35    99.965464    11.761957    85.666035    85.055538    85.357221   -11.761957 -0.059358318 
    2320    621963.53    100.07315    128.15605    85.670293    85.019875    85.391414   -128.15605 -0.059311555 
    2340    621886.95    99.915539   -4.5926408    85.674552    85.008688    85.387892    4.5926408 -0.059264792 
    2360     621902.6    100.02961   -9.7097749    85.678811    85.040935    85.353419    9.7097749 -0.059218028 
    2380    621476.49    99.866934   -6.4419522     85.68307     84.99092    85.340887    6.4419522 -0.059171265 
    2400    621780.02    100.02639   -73.878517    85.687329    85.036305    85.332757    73.878517 -0.059124502 
    2420    622255.53     100.2459   -111.29856    85.691587     85.09361    85.336265    111.29856 -0.059077739 
    2440    622235.57    99.840071    45.642148    85.695846    85.119047    85.303787   -45.642148 -0.059030976 
    2460    622392.29    99.740853    -120.7248    85.700105    85.128221    85.311836     120.7248 -0.058984212 
    2480    621992.19    100.27931   -272.61114    85.704364    85.096814    85.284223    272.61114 -0.058937449 
    2500    622083.46    99.626689   -76.337926    85.708623    85.144195    85.245035    76.337926 -0.058890686 
    2520    622314.35     100.0521    -233.7979    85.712882    85.187527    85.229062     233.7979 -0.058843923 
    2540    622167.68     99.89944   -22.460352     85.71714    85.138972    85.253334    22.460352  -0.05879716 
    2560    621824.31    99.880482    134.37484    85.721399    85.120778    85.220262   -134.37484 -0.058750397 
    2580    621987.84     100.1337   -32.576117    85.725658    85.116977    85.242244    32.576117 -0.058703633 
    2600    621907.27    100.07231   -62.701643    85.729917    85.074666    85.269356    62.701643  -0.05865687 
    2620    622095.89    100.02501    -69.28287    85.734176    85.094666    85.270933     69.28287 -0.058610107 
    2640    622241.09     100.0741   -66.169746    85.738434    85.054305     85.32707    66.169746 -0.058563344 
    2660    622144.31    99.969552    47.542716    85.742693    85.029902    85.334046   -47.542716 -0.058516581 
    2680    622019.26    99.919554   -99.743303    85.746952    85.040912    85.301611    99.743303 -0.058469817 
    2700    621927.22    100.10059   -205.68499    85.751211    85.023788    85.301929    205.68499 -0.058423054 
    2720    621839.19    100.05393   -26.813308     85.75547    85.018437    85.290988    26.813308 -0.058376291 
    2740    622078.51    100.32744 -0.072208267    85.759728    85.011981    85.326054  0.072208267 -0.058329528 
    2760     622162.9    100.27675   -65.048327    85.763987    84.966116    85.379456    65.048327 -0.058282765 
    2780    622129.73    100.46668   -53.643067    85.768246    85.000476    85.336155    53.643067 -0.058236001 
    2800    622233.17    100.44195   -146.77767    85.772505     84.99552    85.351082    146.77767 -0.058189238 
    2820    622292.93    100.48308   -221.22877    85.776764    85.002729    85.347802    221.22877 -0.058142475 
    2840    622185.83    100.40417    33.731872    85.781023    85.009396    85.322185   -33.731872 -0.058095712 
    2860    622077.78    100.78815    71.079321    85.785281    84.982331      85.3303   -71.079321 -0.058048949 
    2880    622439.51    100.00344    -3.899643     85.78954    85.029816    85.328001     3.899643 -0.058002185 
    2900    622853.99    100.20845   -138.04599    85.793799    85.074359    85.335878    138.04599 -0.057955422 
    2920    622691.14    100.00278   -145.22018    85.798058    85.096606    85.287029    145.22018 -0.057908659 
    2940    622266.75    99.623853   -38.983081    85.802317    85.049206    85.272172    38.983081 -0.057861896 
    2960    622243.37    99.858998    11.631477    85.806575    85.041632    85.272329   -11.631477 -0.057815133 
    2980    622225.67    99.863165    13.539599    85.810834    85.042237    85.265064   -13.539599 -0.057768369 
    3000    622655.11     100.2092   -137.58904    85.815093     85.09883    85.262937    137.58904 -0.057721606 
    3020    622537.38    99.595768   -249.60438    85.819352    85.072154    85.269316    249.60438 -0.057674843 
    3040    622250.44    99.968396   -109.27199    85.823611    85.043351    85.254648    109.27199  -0.05762808 
    3060    622688.08    100.01372   -132.04044     85.82787    85.068357    85.285298    132.04044 -0.057581317 
    3080    622580.63    99.714105   -69.814114    85.832128    85.057576    85.277159    69.814114 -0.057534553 
    3100    622500.76    100.06186   -75.251897    85.836387    85.040816    85.278792    75.251897  -0.05748779 
    3120    622808.56    99.647662   -350.67804    85.840646    85.053086    85.304417    350.67804 -0.057441027 
    3140    622652.31    100.10813   -237.08868    85.844905    85.035552    85.296369    237.08868 -0.057394264 
    3160    622925.09    99.864066   -259.55104    85.849164     85.05077    85.314236    259.55104 -0.057347501 
    3180    622705.56    100.10376   -139.56155    85.853422    85.050629    85.280081    139.56155 -0.057300737 
    3200    622584.03    99.646421   -181.98843    85.857681     85.03555    85.274327    181.98843 -0.057253974 
    3220    622732.83    99.906165   -243.55548     85.86194    85.028728     85.29732    243.55548 -0.057207211 
    3240     622559.7    99.964732   -329.64201    85.866199    85.028547    85.269557    329.64201 -0.057160448 
    3260    622590.45    100.06324   -222.77395    85.870458    85.029576    85.268507    222.77395 -0.057113685 
    3280    622634.74    100.14396   -159.87325    85.874716    85.044685    85.255196    159.87325 -0.057066921 
    3300    622650.91    100.15192   -105.85289    85.878975    85.054817    85.243026    105.85289 -0.057020158 
    3320    622762.74    100.07111   -123.05991    85.883234    85.101335    85.207507    123.05991 -0.056973395 
    3340    622485.49     100.2488   -182.60046    85.887493    85.079652    85.187055    182.60046 -0.056926632 
    3360    622240.04     100.6026    47.886121    85.891752    85.049124    85.179807   -47.886121 -0.056879869 
    3380    622431.72    99.918654   -53.678931    85.896011    85.066416    85.184501    53.678931 -0.056833105 
    3400    622460.95    100.57586   -62.611258    85.900269    85.048365    85.202358    62.611258 -0.056786342 
    3420       622748    100.54717    -79.51946    85.904528    85.069816    85.215931     79.51946 -0.056739579 
    3440    622836.43    100.55978    36.591005    85.908787    85.045938    85.247734   -36.591005 -0.056692816 
    3460    623224.65    100.39398   -111.62207    85.913046    85.042491    85.300099    111.62207 -0.056646053 
    3480    623209.04    100.25952    10.631406    85.917305    85.078605    85.257529   -10.631406  -0.05659929 
    3500    623270.15    100.64084    -68.46379    85.921563    85.051249    85.289087     68.46379 -0.056552526 
    3520    623139.23    100.30762   -45.660403    85.925822    85.056103    85.262078    45.660403 -0.056505763 
    3540    622945.78    99.852423   -59.820695    85.930081    85.027432    85.260125    59.820695    -0.056459 
    3560    622838.44     100.3013    -133.6765     85.93434    85.004586    85.264118     133.6765 -0.056412237 
    3580    622755.06    99.747373   -39.637718    85.938599     84.99619      85.2569    39.637718 -0.056365474 
    3600    622402.01    99.931453     68.57069    85.942857    84.969108    85.231502    -68.57069  -0.05631871 
    3620    622356.06    100.25659   -59.579488    85.947116    84.972027    85.218059    59.579488 -0.056271947 
    3640    622295.81    99.811872   -72.076369    85.951375    85.017292    85.160221    72.076369 -0.056225184 
    3660    622258.58    99.893161   -225.56017    85.955634    84.984899    85.183363    225.56017 -0.056178421 
    3680    622336.36    100.01495   -192.34466    85.959893    84.998428    85.176231    192.34466 -0.056131658 
    3700    622233.78    99.923477   -110.69437    85.964152    84.954555    85.201949    110.69437 -0.056084894 
    3720    622196.57    99.637889   -71.232369     85.96841    84.939538    85.207696    71.232369 -0.056038131 
    3740    622087.51    99.841563   -90.668697    85.972669    84.911289    85.216881    90.668697 -0.055991368 
    3760     622120.6    99.749359   -278.72422    85.976928    84.918593    85.209863    278.72422 -0.055944605 
    3780    622219.64    100.06363    -297.1831    85.981187    84.947301    85.190408     297.1831 -0.055897842 
    3800     622067.5    99.874798   -279.13882    85.985446    84.937146    85.175542    279.13882 -0.055851078 
    3820    621754.75    100.34231    11.028107    85.989704    84.925385    85.140292   -11.028107 -0.055804315 
    3840    622171.22    100.25044   -270.09013    85.993963    84.933091    85.185372    270.09013 -0.055757552 
    3860    621913.83     100.1453   -248.60005    85.998222    84.876482    85.202703    248.60005 -0.055710789 
    3880    622067.49    100.53442   -309.05597    86.002481    84.865941    85.230119    309.05597 -0.055664026 
    3900    622663.66     99.67007   -233.68994     86.00674     84.89186     85.28153    233.68994 -0.055617262 
    3920     622300.3    100.20881    -93.68195    86.010998    84.835468    85.284196     93.68195 -0.055570499 
    3940    622497.55    100.59214    13.164533    86.015257    84.834516    85.307962   -13.164533 -0.055523736 
    3960    622775.53    99.690848   -276.46284    86.019516    84.859822    85.316382    276.46284 -0.055476973 
    3980    622812.31    100.31837   -310.45435    86.023775    84.896499    85.280337    310.45435  -0.05543021 
    4000    623101.89    99.973038   -134.04966    86.028034    84.921533    85.290615    134.04966 -0.055383446 
    4020    623367.81    100.07886   -223.80719    86.032293    84.957654    85.286514    223.80719 -0.055336683 
    4040    622857.83    100.57577    51.464477    86.036551    84.945215    85.225001   -51.464477  -0.05528992 
    4060    623228.15    100.22083   -309.93799     86.04081    84.937805     85.27889    309.93799 -0.055243157 
    4080    623037.93    100.28916    -212.1193    86.045069    84.955696    85.230689     212.1193 -0.055196394 
    4100     623034.9    100.62406   -175.98808    86.049328    84.928624    85.253223    175.98808  -0.05514963 
    4120    622997.11    100.03127    14.259819    86.053587    84.940049    85.232367   -14.259819 -0.055102867 
    4140    622876.82    100.67819   -127.24745    86.057845    84.942086     85.20965    127.24745 -0.055056104 
    4160    623082.55    100.31156   -198.90241    86.062104    84.956472    85.219142    198.90241 -0.055009341 
    4180    622843.42    100.50435     -226.911    86.066363     84.93329    85.205472      226.911 -0.054962578 
    4200    622954.21    100.04862   -149.72137    86.070622    84.907895    85.241898    149.72137 -0.054915814 
    4220    623131.31     100.2304   -128.30687    86.074881    84.930309    85.239411    128.30687 -0.054869051 
    4240    622854.56    99.604327   -81.862943     86.07914    84.900613    85.227138    81.862943 -0.054822288 
    4260     623242.7    100.00906   -110.47027    86.083398    84.875829     85.30093    110.47027 -0.054775525 
    4280    623477.01    99.855921   -309.27869    86.087657    84.918798    85.285602    309.27869 -0.054728762 
    4300    623149.43    100.01556   -162.28209    86.091916    84.918677    85.236696    162.28209 -0.054681998 
    4320    623123.62    100.02853   -207.46002    86.096175    84.970784    85.176685    207.46002 -0.054635235 
    4340    622835.72    99.787954   -194.34933    86.100434    84.918168     85.18587    194.34933 -0.054588472 
    4360    622800.54    99.853289   -200.34011    86.104692    84.902171    85.192893    200.34011 -0.054541709 
    4380     622557.8    99.979895   -313.30901    86.108951    84.914824    85.142788    313.30901 -0.054494946 
    4400     622307.3     99.64115   -397.98563     86.11321     84.89372    85.125476    397.98563 -0.054448183 
    4420    622484.56    99.799897   -89.768644    86.117469    84.886264    85.152991    89.768644 -0.054401419 
    4440    622779.71    100.00454   -232.79735    86.121728    84.903512    85.171847    232.79735 -0.054354656 
    4460    622876.39    99.801886   -141.16348    86.125986    84.905151    85.179212    141.16348 -0.054307893 
    4480    623137.73    99.484945   -222.42428    86.130245    84.914459    85.201396    222.42428  -0.05426113 
    4500     623113.5    100.12322   -142.75824    86.134504    84.921694    85.186614    142.75824 -0.054214367 
    4520    623495.02    99.708893   -189.34602    86.138763    84.944309    85.211865    189.34602 -0.054167603 
    4540    623189.51    99.602367   -226.53265    86.143022    84.907246    85.203076    226.53265  -0.05412084 
    4560    622814.02     99.91376   -248.70438    86.147281    84.873673    85.181211    248.70438 -0.054074077 
    4580    623562.52    100.12099   -226.26335    86.151539    84.909583      85.2433    226.26335 -0.054027314 
    4600    623456.98    100.37363   -229.12178    86.155798    84.895983    85.238313    229.12178 -0.053980551 
    4620    623736.64    100.14073      -341.79    86.160057    84.906372    85.261898       341.79 -0.053933787 
    4640    623978.34    100.35317    -277.8288    86.164316    84.929264    85.267732     277.8288 -0.053887024 
    4660    623769.71    100.01581   -172.02218    86.168575    84.926427    85.237857    172.02218 -0.053840261 
    4680    623963.49    100.70881   -151.56188    86.172833    84.954948    85.231499    151.56188 -0.053793498 
    4700    623759.71    100.27835    -166.8252    86.177092    84.942502    85.211936     166.8252 -0.053746735 
    4720    623827.37    100.75222     -208.621    86.181351     84.95284    85.206597      208.621 -0.053699971 
    4740    623786.61    100.02538   -45.915969     86.18561    84.968197    85.181422    45.915969 -0.053653208 
    4760    623769.96    100.40026    46.689982    86.189869    84.978164    85.164949   -46.689982 -0.053606445 
    4780    624076.59    99.892933   -51.087502    86.194127    84.979111    85.201656    51.087502 -0.053559682 
    4800    623658.33    100.22732   -45.492597    86.198386    84.939836    85.179714    45.492597 -0.053512919 
    4820    623439.09    99.990327   -50.911484    86.202645    84.916212     85.16925    50.911484 -0.053466155 
    4840    623530.98     99.90625    6.7819263    86.206904    84.913674    85.180142   -6.7819263 -0.053419392 
    4860    623493.85    100.15409    80.605281    86.211163    84.891386    85.193223   -80.605281 -0.053372629 
    4880    623372.54    99.887698    77.092028    86.215422    84.885503    85.178343   -77.092028 -0.053325866 
    4900    623172.42    100.14587   -64.021213     86.21968    84.875775    85.156551    64.021213 -0.053279103 
    4920    623260.88    99.998398   -136.90068    86.223939    84.912901    85.127197    136.90068 -0.053232339 
    4940    623828.96    100.44003   -221.56108    86.228198    84.948188    85.165186    221.56108 -0.053185576 
    4960    623398.06    99.441434    20.621852    86.232457    84.913114    85.137309   -20.621852 -0.053138813 
    4980    623442.69    100.23454   -205.16665    86.236716    84.933191    85.119073    205.16665  -0.05309205 
    5000    623361.81    99.790471   -46.589782    86.240974    84.922598    85.114443    46.589782 -0.053045287 
    5020    623431.09    99.961145   -136.33172    86.245233    84.915849    85.126465    136.33172 -0.052998523 
    5040    623970.78    99.786334    -158.9619    86.249492    84.950231    85.161468     158.9619  -0.05295176 
    5060    623875.16    99.903675   -136.56374    86.253751    84.898407    85.196188    136.56374 -0.052904997 
    5080     624208.6    99.745566   -170.02017     86.25801    84.899268     85.23665    170.02017 -0.052858234 
    5100    624371.18    100.10111   -178.44498    86.262268    84.892558    85.261379    178.44498 -0.052811471 
    5120    624346.24     99.79674   -203.87537    86.266527    84.902627    85.243654    203.87537 -0.052764707 
    5140    623979.92    100.15973   -132.48026    86.270786    84.878186    85.213964    132.48026 -0.052717944 
    5160    624146.37    99.922933   -265.59764    86.275045    84.869804    85.240906    265.59764 -0.052671181 
    5180    624078.07    99.902563   -133.87856    86.279304    84.862074    85.235134    133.87856 -0.052624418 
    5200    623773.14     100.1395    15.327792    86.283563    84.863634    85.187716   -15.327792 -0.052577655 
    5220     623683.4    100.33496   -42.912204    86.287821    84.853762    85.181165    42.912204 -0.052530891 
    5240    623732.91    100.12588   -209.19795     86.29208    84.873865    85.163547    209.19795 -0.052484128 
    5260    623558.81    100.62724   -136.73528    86.296339    84.860957    85.148524    136.73528 -0.052437365 
    5280    623413.14    100.03908   -65.235196    86.300598    84.869505    85.115858    65.235196 -0.052390602 
    5300    623563.72    100.16874   -7.0939512    86.304857    84.846506    85.155291    7.0939512 -0.052343839 
    5320    623451.19    100.34637   -70.991793    86.309115    84.850463    85.131752    70.991793 -0.052297076 
    5340    623727.42    100.37222     -95.2636    86.313374    84.878125    85.137513      95.2636 -0.052250312 
    5360    623609.89    100.53664   -31.987764    86.317633     84.84468    85.150823    31.987764 -0.052203549 
    5380    623948.04    100.63968   -94.854701    86.321892    84.851931    85.185513    94.854701 -0.052156786 
    5400    624149.19    100.33471   -13.720969    86.326151    84.863323    85.197333    13.720969 -0.052110023 
    5420    624341.81    100.80178   -171.45856     86.33041    84.883876    85.198788    171.45856  -0.05206326 
    5440    624431.64    100.51403   -167.16332    86.334668    84.845332    85.245551    167.16332 -0.052016496 
    5460    624137.39    100.27793   -213.60438    86.338927    84.842473    85.204049    213.60438 -0.051969733 
    5480    623703.47    100.61773   -66.841044    86.343186    84.843849    85.139233    66.841044  -0.05192297 
    5500    623991.76    100.35367   -96.391481    86.347445    84.860031    85.158142    96.391481 -0.051876207 
    5520    623763.02    100.58458   -13.705905    86.351704    84.828644    85.154223    13.705905 -0.051829444 
    5540     623816.7    100.42113   -79.619435    86.355962    84.812327    85.173734    79.619435  -0.05178268 
    5560    624023.36    100.30108   -188.99609    86.360221    84.807037    85.203064    188.99609 -0.051735917 
    5580    623864.95    99.984526   -205.06021     86.36448    84.829276    85.154904    205.06021 -0.051689154 
    5600    624071.78    100.09925   -6.1923472    86.368739    84.846305    85.161839    6.1923472 -0.051642391 
    5620    624127.66    99.869503    26.192588    86.372998    84.859513    85.152009   -26.192588 -0.051595628 
    5640    624099.14    100.30792   -105.03637    86.377256    84.841608    85.161889    105.03637 -0.051548864 
    5660    624406.37    99.803991   -336.09112    86.381515    84.841388    85.199833    336.09112 -0.051502101 
    5680    624071.31    99.790656   -354.45548    86.385774    84.854105    85.137154    354.45548 -0.051455338 
    5700    624343.58    100.07794   -245.77017    86.390033    84.817593    85.206763    245.77017 -0.051408575 
    5720    624180.16    99.742229   -68.279882    86.394292    84.781456    85.216568    68.279882 -0.051361812 
    5740     624141.1    99.919815   -232.66351    86.398551    84.816459    85.171872    232.66351 -0.051315048 
    5760    624572.83    99.956978   -345.66737    86.402809    84.834538    85.208423    345.66737 -0.051268285 
    5780    624167.47    99.702173   -450.72244    86.407068    84.809913    85.173647    450.72244 -0.051221522 
    5800       624387     100.1903   -422.07305    86.411327    84.817433    85.191851    422.07305 -0.051174759 
    5820    624279.77    100.04405   -113.86166    86.415586     84.79779    85.192752    113.86166 -0.051127996 
    5840    624067.19      99.8988   -97.470975    86.419845    84.807882    85.149412    97.470975 -0.051081232 
    5860    624383.77    100.02875   -281.86702    86.424103    84.852067    85.144049    281.86702 -0.051034469 
    5880    624302.73    99.648509   -352.89573    86.428362    84.858977     85.12187    352.89573 -0.050987706 
    5900    623903.92    99.484368   -190.57206    86.432621    84.803156    85.119295    190.57206 -0.050940943 
    5920    624189.81    100.08995   -145.35946     86.43688    84.837293    85.119838    145.35946  -0.05089418 
    5940    623668.03    99.511923    20.186844    86.441139    84.813192     85.06866   -20.186844 -0.050847416 
    5960    623787.33    100.12708   -240.91522    86.445397    84.797618    85.096368    240.91522 -0.050800653 
    5980    623777.86    99.518165   -300.22751    86.449656    84.820578     85.06785    300.22751  -0.05075389 
    6000     623457.9    100.24674   -234.55797    86.453915    84.769832    85.070922    234.55797 -0.050707127 
    6020    623696.35    100.42327   -187.90383    86.458174    84.758298    85.110848    187.90383 -0.050660364 
    6040    623701.39    99.763687   -235.53151    86.462433    84.764312    85.101306    235.53151   -0.0506136 
    6060    623957.51    99.808615   -162.55488    86.466692     84.74704    85.149408    162.55488 -0.050566837 
    6080    624200.11    100.80084   -231.16272     86.47095    84.792157    85.132998    231.16272 -0.050520074 
    6100    624160.14     100.0692   -372.28172    86.475209    84.806757      85.1087    372.28172 -0.050473311 
    6120     624274.6    100.69076   -151.92528    86.479468    84.800665    85.126229    151.92528 -0.050426548 
    6140     624375.8    99.957745   -324.71901    86.483727     84.79988    85.136625    324.71901 -0.050379784 
    6160    624446.48    100.53428   -171.80642    86.487986     84.77189    85.170182    171.80642 -0.050333021 
    6180    624591.99    100.37748   -185.57162    86.492244    84.798699    85.158903    185.57162 -0.050286258 
    6200    624116.88    100.25315    -197.9202    86.496503     84.79094    85.097721     197.9202 -0.050239495 
    6220    624096.36    100.13215   -280.02225    86.500762    84.808776    85.072838    280.02225 -0.050192732 
    6240     624138.7    100.10922   -294.13343    86.505021    84.841858    85.041248    294.13343 -0.050145969 
    6260    623961.68     100.3954   -447.70432     86.50928    84.819209    85.035644    447.70432 -0.050099205 
    6280    624222.97    100.56306   -224.43288    86.513538    84.801741    85.084589    224.43288 -0.050052442 
    6300    624249.86    99.718691   -362.18216    86.517797    84.802469    85.083335    362.18216 -0.050005679 
    6320     624345.1    99.684592   -297.19345    86.522056    84.789903    85.104738    297.19345 -0.049958916 
    6340    624711.59    100.10532   -357.98323    86.526315    84.825678    85.114591    357.98323 -0.049912153 
    6360    624528.54    99.657055   -424.11695    86.530574    84.778512      85.1328    424.11695 -0.049865389 
    6380    624457.75    99.724592   -371.36646    86.534833    84.751055    85.146537    371.36646 -0.049818626 
    6400    624791.68    99.794337   -471.43418    86.539091    84.768559    85.170286    471.43418 -0.049771863 
    6420    624340.21    99.779976   -279.32264     86.54335    84.701179    85.172256    279.32264   -0.0497251 
    6440    624438.98    100.01174   -379.08692    86.547609    84.726032    85.156551    379.08692 -0.049678337 
    6460     624376.5    100.19646   -457.91685    86.551868    84.739389     85.13042    457.91685 -0.049631573 
    6480    624609.68    99.953512   -308.34514    86.556127    84.771583    85.125682    308.34514  -0.04958481 
    6500    624570.31    100.26926   -294.65644    86.560385    84.771837    85.115874    294.65644 -0.049538047 
    6520    624141.85    100.09654   -264.46968    86.564644    84.693673    85.131795    264.46968 -0.049491284 
    6540    624228.33     99.73028   -255.50322    86.568903    84.744783    85.088053    255.50322 -0.049444521 
    6560    624286.93    100.10733   -218.62594    86.573162    84.784828    85.051664    218.62594 -0.049397757 
    6580    624092.52    100.00632    -153.9762    86.577421    84.777864     85.02798     153.9762 -0.049350994 
    6600    624351.72    99.929511   -244.24782     86.58168    84.790074    85.046862    244.24782 -0.049304231 
    6620    624300.91     100.2326   -166.39329    86.585938    84.753696    85.072256    166.39329 -0.049257468 
    6640    624622.68    100.02384   -322.26166    86.590197    84.789024    85.076455    322.26166 -0.049210705 
    6660    624887.42     100.4358   -336.48675    86.594456    84.842655    85.054529    336.48675 -0.049163941 
    6680    624658.48    99.793077   -144.39808    86.598715    84.835761    85.026095    144.39808 -0.049117178 
    6700    624984.21    100.47731     -136.639    86.602974    84.873829    85.028095      136.639 -0.049070415 
    6720     624535.6     100.2418   -164.75213    86.607232    84.829744    85.007038    164.75213 -0.049023652 
    6740     624212.2      100.133   -220.44106    86.611491    84.806405    84.982223    220.44106 -0.048976889 
    6760    624345.54    100.48859   -294.98569     86.61575    84.826915    84.975645    294.98569 -0.048930125 
    6780    624226.79    100.27541   -80.517088    86.620009    84.820115    84.962117    80.517088 -0.048883362 
    6800     624313.5    100.09589   -126.07071    86.624268    84.836865    84.952965    126.07071 -0.048836599 
    6820    624316.87    100.46845   -178.26291    86.628526    84.833609    84.952507    178.26291 -0.048789836 
    6840     624567.6    100.34864   -333.13696    86.632785    84.837052    84.978997    333.13696 -0.048743073 
    6860    624773.24    100.55714   -347.47996    86.637044    84.862111    84.977698    347.47996 -0.048696309 
    6880    624732.51     100.5382    -298.2037    86.641303    84.837431      84.9927     298.2037 -0.048649546 
    6900     625104.8    100.27109   -340.79356    86.645562    84.878417    84.998105    340.79356 -0.048602783 
    6920    625055.31    100.48335   -307.10802    86.649821     84.88084    84.984771    307.10802  -0.04855602 
    6940    625002.86    99.806613   -438.02021    86.654079    84.856215    84.998123    438.02021 -0.048509257 
    6960    625220.09    100.08409   -410.76477    86.658338    84.867629    85.012052    410.76477 -0.048462493 
    6980    624807.48     99.71332   -266.25623    86.662597    84.867342     84.95206    266.25623  -0.04841573 
    7000    624708.57    100.13013   -280.06191    86.666856    84.821567    84.980275    280.06191 -0.048368967 
    7020    624922.06    99.776854   -412.29922    86.671115    84.835565    84.991113    412.29922 -0.048322204 
    7040    624886.26    99.758086   -431.16218    86.675373    84.799388    85.018323    431.16218 -0.048275441 
    7060    624748.37    99.662128   -396.19253    86.679632    84.804693    84.990069    396.19253 -0.048228677 
    7080    624528.17    99.747385   -337.84261    86.683891     84.75589    85.004858    337.84261 -0.048181914 
    7100    624803.65    99.615655   -400.26697     86.68815    84.751027    85.043055    400.26697 -0.048135151 
    7120    624926.43     100.3672   -270.61762    86.692409    84.751057    85.055558    270.61762 -0.048088388 
    7140    624798.78     99.63063   -336.25749    86.696667    84.755084    85.029966    336.25749 -0.048041625 
    7160    624810.12    99.595788   -346.74386    86.700926    84.781839    85.000501    346.74386 -0.047994861 
    7180    624945.55    99.626543   -488.32972    86.705185    84.780366    85.016226    488.32972 -0.047948098 
    7200    624710.79    100.03306   -374.99859    86.709444    84.754738    85.005812    374.99859 -0.047901335 
    7220    624728.67    100.10034   -224.02411    86.713703    84.750636    85.008184    224.02411 -0.047854572 
    7240    624664.41    100.12701   -325.08356    86.717962    84.727689    85.018286    325.08356 -0.047807809 
    7260    624508.23    99.909488   -424.12913     86.72222    84.756869    84.963593    424.12913 -0.047761046 
    7280     624339.2    100.60324   -431.62105    86.726479    84.744627    84.948695    431.62105 -0.047714282 
    7300    623941.58    100.17128   -194.10031    86.730738    84.707249    84.927884    194.10031 -0.047667519 
    7320     624092.5    100.30303   -198.17065    86.734997    84.706609    84.944898    198.17065 -0.047620756 
    7340    624124.18     100.1993   -293.56324    86.739256    84.691285     84.96041    293.56324 -0.047573993 
    7360    624465.28     100.0752    -388.6945    86.743514    84.716268      84.9776     388.6945  -0.04752723 
    7380    624764.34    100.22999   -340.54878    86.747773    84.705806    85.024625    340.54878 -0.047480466 
    7400    625042.82    100.47779   -248.96716    86.752032    84.753293    85.010688    248.96716 -0.047433703 
    7420    625445.22    100.27782   -180.20265    86.756291    84.758005    85.056513    180.20265  -0.04738694 
    7440     625550.8    100.30688   -339.45484     86.76055    84.724152    85.100685    339.45484 -0.047340177 
    7460    625672.03    100.20836   -374.44505    86.764808    84.732627    85.104487    374.44505 -0.047293414 
    7480    625545.05     100.1553   -296.96444    86.769067    84.692183     85.12367    296.96444  -0.04724665 
    7500     625141.3    99.999958   -297.05838    86.773326    84.650682    85.106256    297.05838 -0.047199887 
    7520    625285.91    100.20809   -436.56357    86.777585    84.669132    85.103216    436.56357 -0.047153124 
    7540    625431.47    99.909585   -422.47783    86.781844    84.657303    85.130744    422.47783 -0.047106361 
    7560    625001.23    99.720498   -271.24866    86.786103    84.661631    85.063659    271.24866 -0.047059598 
    7580    625511.33    100.02505   -306.50174    86.790361    84.734032    85.056168    306.50174 -0.047012834 
    7600    625291.01    99.809473   -490.46413     86.79462    84.707702    85.048464    490.46413 -0.046966071 
    7620    624833.42    99.567153   -467.34896    86.798879    84.682527     85.00732    467.34896 -0.046919308 
    7640    624940.75    99.591608   -278.26479    86.803138    84.723776    84.976359    278.26479 -0.046872545 
    7660    624763.28    99.787319   -291.57448    86.807397    84.695152    84.976768    291.57448 -0.046825782 
    7680    624903.66    99.756295   -450.91642    86.811655    84.703282    84.983535    450.91642 -0.046779018 
    7700    624793.87    99.527174   -373.82414    86.815914      84.6695    84.998336    373.82414 -0.046732255 
    7720    624771.78    100.02859   -412.58771    86.820173    84.630715    85.030111    412.58771 -0.046685492 
    7740    625584.81    100.00374   -398.49389    86.824432    84.700159    85.066785    398.49389 -0.046638729 
    7760    625634.17    100.20013   -381.49012    86.828691    84.707474    85.061978    381.49012 -0.046591966 
    7780    625857.66    100.66236   -476.28089     86.83295    84.710389    85.085262    476.28089 -0.046545202 
    7800    625857.18    100.26558   -333.24653    86.837208    84.717151    85.074233    333.24653 -0.046498439 
    7820    625816.45    100.32266   -365.41829    86.841467    84.744836    85.036736    365.41829 -0.046451676 
    7840    625924.94    100.11417   -300.24513    86.845726    84.792273    84.999727    300.24513 -0.046404913 
    7860     625756.1    99.998631   -334.46396    86.849985    84.766787    84.998179    334.46396  -0.04635815 
    7880    625701.67     100.0218   -405.13435    86.854244    84.751539    85.001909    405.13435 -0.046311386 
    7900    625836.05    100.08873   -358.58936    86.858502    84.769039    84.998445    358.58936 -0.046264623 
    7920    625373.47    100.20515   -177.07646    86.862761    84.721592     84.97902    177.07646  -0.04621786 
    7940    625472.78    100.35805   -252.38543     86.86702    84.699003    85.011014    252.38543 -0.046171097 
    7960    625942.67    100.24818   -519.57584    86.871279    84.728993    85.040597    519.57584 -0.046124334 
    7980    625954.36    100.22281   -350.74983    86.875538    84.730909    85.036093    350.74983  -0.04607757 
    8000    626239.92    99.927253   -238.46536    86.879796    84.793235    85.008185    238.46536 -0.046030807 
    8020    626093.88    100.06248   -217.12055    86.884055    84.775335     85.00214    217.12055 -0.045984044 
    8040    626012.24    99.767884   -354.46062    86.888314    84.780178    84.982035    354.46062 -0.045937281 
    8060    626171.01    99.618503   -353.77737    86.892573    84.816611    84.962911    353.77737 -0.045890518 
    8080     625695.4    99.783227   -287.35015    86.896832    84.756568    84.954356    287.35015 -0.045843754 
    8100     625552.7    99.770517   -115.64862    86.901091     84.74426    84.943155    115.64862 -0.045796991 
    8120    625323.69    99.675103   -269.74649    86.905349    84.735025    84.917149    269.74649 -0.045750228 
    8140    625169.91    99.420756   -125.40215    86.909608    84.719381    84.907783    125.40215 -0.045703465 
    8160    625324.37    99.597167   -309.03308    86.913867    84.715556    84.928434    309.03308 -0.045656702 
    8180    625159.37    100.00257   -280.54254    86.918126    84.696055    84.921413    280.54254 -0.045609939 
    8200    625497.41    99.509519    -393.9956    86.922385    84.764152    84.894912     393.9956 -0.045563175 
    8220    625249.73    99.974187   -341.94578    86.926643     84.75166    84.869645    341.94578 -0.045516412 
    8240    625275.03    99.861617   -316.12201    86.930902    84.713745    84.906907    316.12201 -0.045469649 
    8260    625347.92    99.796545   -411.51447    86.935161    84.755015    84.871297    411.51447 -0.045422886 
    8280    625386.68    99.840141   -474.32372     86.93942    84.728952    84.898507    474.32372 -0.045376123 
    8300     625576.8    100.03389   -471.86972    86.943679    84.746271    84.902802    471.86972 -0.045329359 
    8320    625593.21    99.914724   -422.58158    86.947937     84.73743    84.909729    422.58158 -0.045282596 
    8340    625454.83    100.06062   -515.31619    86.952196     84.74362    84.880588    515.31619 -0.045235833 
    8360    625632.18     99.86931   -539.61591    86.956455    84.769162    84.874918    539.61591  -0.04518907 
    8380    625769.36    100.26932   -621.83806    86.960714    84.783484    84.875029    621.83806 -0.045142307 
    8400    625717.91    100.16596   -388.26075    86.964973    84.781612    84.865769    388.26075 -0.045095543 
    8420    625722.97    99.921549   -327.85167    86.969232    84.781002    84.862909    327.85167  -0.04504878 
    8440    625692.21    100.13081   -436.91068     86.97349    84.742817    84.892818    436.91068 -0.045002017 
    8460    625834.75    100.24759    -508.0998    86.977749      84.7232     84.92766     508.0998 -0.044955254 
    8480    625669.48     100.2113   -587.23462    86.982008    84.681381    84.943002    587.23462 -0.044908491 
    8500    625422.93    100.15294    -588.6891    86.986267    84.684714     84.90203     588.6891 -0.044861727 
    8520    625737.48    100.28479   -460.54548    86.990526    84.712769    84.912443    460.54548 -0.044814964 
    8540    625761.19    100.33833   -372.33416    86.994784    84.720892    84.903363    372.33416 -0.044768201 
    8560    625995.81    99.777313   -329.25335    86.999043    84.750328    84.901538    329.25335 -0.044721438 
    8580    626430.13    99.733165    -374.8236    87.003302    84.789962    84.916574     374.8236 -0.044674675 
    8600    626440.76    99.730138    -444.8703    87.007561    84.783954    84.919875     444.8703 -0.044627911 
    8620    626552.63    99.874601   -408.24402     87.01182    84.797786    84.917029    408.24402 -0.044581148 
    8640    626424.17    99.781359   -385.38935    87.016078    84.778924    84.914351    385.38935 -0.044534385 
    8660    625810.33    99.650643    -370.4452    87.020337     84.74389    84.862059     370.4452 -0.044487622 
    8680    625848.86     99.68864   -342.15043    87.024596    84.726136    84.880914    342.15043 -0.044440859 
    8700    625907.41    99.852537   -400.65388    87.028855    84.723203     84.88764    400.65388 -0.044394095 
    8720    625579.37    99.245745   -479.30121    87.033114    84.682475    84.879802    479.30121 -0.044347332 
    8740     625626.5    99.648407   -328.18073    87.037373    84.693997    84.870495    328.18073 -0.044300569 
    8760       625732    99.824466   -233.62438    87.041631    84.691617    84.883038    233.62438 -0.044253806 
    8780    626279.96    99.578559   -344.98352     87.04589    84.719097    84.925659    344.98352 -0.044207043 
    8800    626643.79    100.14492   -534.20846    87.050149    84.722698    84.967226    534.20846 -0.044160279 
    8820    626128.18    99.796313   -490.34771    87.054408     84.66805    84.947955    490.34771 -0.044113516 
    8840    625923.76    100.05806   -278.27342    87.058667    84.652812    84.931353    278.27342 -0.044066753 
    8860     626162.4    100.19734   -378.39975    87.062925     84.66983      84.9425    378.39975  -0.04401999 
    8880    625876.05    99.810327   -270.35107    87.067184    84.674885    84.894435    270.35107 -0.043973227 
    8900    625992.62    100.17595    -454.4498    87.071443    84.682557      84.8984     454.4498 -0.043926463 
    8920    626102.93    99.983181   -431.44863    87.075702    84.654961    84.936887    431.44863   -0.0438797 
    8940    626284.83    99.824079   -347.64782    87.079961    84.664217    84.948119    347.64782 -0.043832937 
    8960    626481.95    100.29506   -369.35514     87.08422    84.678915    84.955953    369.35514 -0.043786174 
    8980    626496.73     99.87643   -441.88706    87.088478     84.68566    84.947035    441.88706 -0.043739411 
    9000    626094.53    100.20748   -327.38727    87.092737    84.633976     84.94019    327.38727 -0.043692647 
    9020    626368.15    100.17261   -623.77812    87.096996    84.634246    84.972884    623.77812 -0.043645884 
    9040    626288.73    100.03287   -428.96663    87.101255    84.618061    84.974206    428.96663 -0.043599121 
    9060    626375.94    99.978399   -481.40967    87.105514    84.642188    84.957659    481.40967 -0.043552358 
    9080    626056.35    100.43678   -345.60877    87.109772    84.625439    84.926966    345.60877 -0.043505595 
    9100    626211.33    99.727799   -494.46381    87.114031    84.640181    84.929043    494.46381 -0.043458832 
    9120    626265.47    100.12133   -580.07904     87.11829      84.6929    84.879365    580.07904 -0.043412068 
    9140    626377.76    100.29377   -352.13671    87.122549    84.703441    84.879869    352.13671 -0.043365305 
    9160    625954.85    100.27428   -284.68115    87.126808     84.66979    84.852125    284.68115 -0.043318542 
    9180    625774.99    100.02684   -315.67537    87.131066    84.653438    84.839983    315.67537 -0.043271779 
    9200    626467.46    100.08474    -490.2779    87.135325    84.689552    84.893498     490.2779 -0.043225016 
    9220    626227.98    100.10377   -355.54309    87.139584     84.71016    84.836254    355.54309 -0.043178252 
    9240    626355.37    99.925558   -433.08082    87.143843    84.699827    84.859716    433.08082 -0.043131489 
    9260    626181.66    99.988753   -264.50638    87.148102    84.676442    84.855463    264.50638 -0.043084726 
    9280    626343.13    99.516102   -355.47456    87.152361    84.694765    84.854835    355.47456 -0.043037963 
    9300    626612.53     99.69315   -226.58609    87.156619    84.694864    84.887085    226.58609   -0.0429912 
    9320    626234.98    99.501129   -458.92219    87.160878    84.640417    84.886364    458.92219 -0.042944436 
    9340    626205.27     99.15537   -470.70483    87.165137    84.643656    84.874941    470.70483 -0.042897673 
    9360    625986.62    99.910052   -372.92236    87.169396    84.614469    84.870426    372.92236  -0.04285091 
    9380    625704.72    99.544511   -270.07247    87.173655    84.602563    84.839999    270.07247 -0.042804147 
    9400    626105.89    98.850079   -356.41831    87.177913    84.640317    84.852381    356.41831 -0.042757384 
    9420    626179.13    99.554525   -388.66682    87.182172    84.642735    84.855738    388.66682  -0.04271062 
    9440    625969.69    99.155343   -495.57618    87.186431    84.628847    84.837132    495.57618 -0.042663857 
    9460    626446.48    99.658217   -557.01919     87.19069    84.664602    84.861751    557.01919 -0.042617094 
    9480    625992.46    99.338013   -338.98831    87.194949    84.663423    84.797285    338.98831 -0.042570331 
    9500    625876.73    99.335235   -323.41347    87.199207    84.641473    84.799454    323.41347 -0.042523568 
    9520    626394.76    99.094422   -473.37222    87.203466    84.660828    84.846095    473.37222 -0.042476804 
    9540    626047.68    99.261545    -587.3225    87.207725    84.632746    84.823077     587.3225 -0.042430041 
    9560    625949.05    99.260641   -568.36105    87.211984     84.62286    84.815479    568.36105 -0.042383278 
    9580    625999.71    99.809635   -526.31553    87.216243    84.639735    84.801291    526.31553 -0.042336515 
    9600    625628.07    99.429783   -401.05503    87.220502    84.582473    84.804181    401.05503 -0.042289752 
    9620    625785.13    99.716912   -417.13148     87.22476    84.567308     84.83654    417.13148 -0.042242988 
    9640    625425.45    99.572562   -485.03582    87.229019    84.528591    84.822473    485.03582 -0.042196225 
    9660    625312.29    100.07961   -494.82213    87.233278    84.494711     84.83699    494.82213 -0.042149462 
    9680    625733.36     99.69756   -437.67556    87.237537    84.505831    84.878802    437.67556 -0.042102699 
    9700    626159.82    100.03956   -389.60662    87.241796    84.524771    84.913471    389.60662 -0.042055936 
    9720    626267.58    99.646913   -418.46627    87.246054    84.559897    84.888663    418.46627 -0.042009172 
    9740    626681.83    100.09154   -578.37545    87.250313    84.591425    84.909008    578.37545 -0.041962409 
    9760    626624.69    99.959555   -493.83009    87.254572    84.572108    84.916514    493.83009 -0.041915646 
    9780    626700.96    100.09459   -314.99574    87.258831    84.567498    84.927334    314.99574 -0.041868883 
    9800    626527.57    100.15625   -50.598465     87.26309    84.580498    84.886643    50.598465  -0.04182212 
    9820    626604.81    100.16244    -285.7053    87.267348    84.591438    84.881987     285.7053 -0.041775356 
    9840    626710.82    100.18315   -322.98757    87.271607    84.610818    84.872761    322.98757 -0.041728593 
    9860    626394.48     100.2166   -231.57282    87.275866    84.581714    84.854968    231.57282  -0.04168183 
    9880    626178.91    99.852518   -175.40674    87.280125    84.564422    84.838972    175.40674 -0.041635067 
    9900    626058.72    100.38231   -2.4521451    87.284384    84.558179     84.82481    2.4521451 -0.041588304 
    9920    626232.05    99.687526   -216.32343    87.288643    84.589028    84.813213    216.32343  -0.04154154 
    9940    626114.83    100.10862   -257.15741    87.292901    84.566909    84.815379    257.15741 -0.041494777 
    9960    626034.52    100.24073   -258.68882     87.29716    84.553956    84.813353    258.68882 -0.041448014 
    9980     626012.6    100.16663   -218.90368    87.301419    84.565668    84.794501    218.90368 -0.041401251 
   10000    626248.87    100.36324   -47.764436    87.305678     84.55505    84.833018    47.764436 -0.041354488 
   10020    626420.66    100.19754   -87.078901    87.309937    84.538926    84.868333    87.078901 -0.041307725 
   10040    626657.45    99.765657   -375.27264    87.314195    84.562551    84.872555    375.27264 -0.041260961 
   10060    626566.34     100.2039   -254.79292    87.318454    84.583211    84.835349    254.79292 -0.041214198 
   10080    626682.84    99.957883   -288.56252    87.322713    84.605878    84.824253    288.56252 -0.041167435 
   10100    626768.72    99.510338   -107.50579    87.326972    84.596345      84.8413    107.50579 -0.041120672 
   10120    626735.26    99.637864   -241.82464    87.331231    84.631451    84.797443    241.82464 -0.041073909 
   10140    627030.68    99.482533   -556.15051     87.33549     84.63492    84.829801    556.15051 -0.041027145 
   10160    626789.25    99.634134   -476.54711    87.339748    84.648735    84.779164    476.54711 -0.040980382 
   10180    626747.24     99.53619   -520.99829    87.344007    84.667739    84.750322    520.99829 -0.040933619 
   10200    626832.84     99.89319    -414.8088    87.348266    84.647554    84.777975     414.8088 -0.040886856 
   10220    626760.15     100.0353   -355.45053    87.352525    84.636049    84.775533    355.45053 -0.040840093 
   10240    626938.66    99.527839    -485.6803    87.356784    84.616393    84.815243     485.6803 -0.040793329 
   10260    627308.57    100.18554   -657.57376    87.361042    84.622582    84.854942    657.57376 -0.040746566 
   10280    627117.18    99.567244   -613.72982    87.365301    84.626601     84.82089    613.72982 -0.040699803 
   10300    627115.94    99.452255   -473.96392     87.36956    84.669648    84.773465    473.96392  -0.04065304 
   10320    626890.88    100.27655   -380.44948    87.373819       84.656    84.752572    380.44948 -0.040606277 
   10340     627060.5    99.599666   -539.70586    87.378078    84.675138    84.752212    539.70586 -0.040559513 
   10360    627268.84    100.26395   -495.58426    87.382336    84.680127    84.771245    495.58426  -0.04051275 
   10380    626691.21    99.776023   -405.16754    87.386595     84.66116    84.708028    405.16754 -0.040465987 
   10400    626972.35    100.05522   -396.18302    87.390854    84.652632    84.750435    396.18302 -0.040419224 
   10420     627145.2    100.05188   -461.65285    87.395113      84.6409     84.78142    461.65285 -0.040372461 
   10440    627093.07    100.10717   -497.86676    87.399372    84.630481    84.780677    497.86676 -0.040325697 
   10460     627069.3    100.09736   -252.93926    87.403631    84.639026    84.764775    252.93926 -0.040278934 
   10480    627159.49    99.952974   -520.41407    87.407889    84.638159    84.773703    520.41407 -0.040232171 
   10500    626872.24    99.977352    -404.2354    87.412148    84.601224    84.767739     404.2354 -0.040185408 
   10520    626753.44     100.0779   -357.34904    87.416407    84.562783    84.786071    357.34904 -0.040138645 
   10540    626792.81    99.892434   -312.46059    87.420666      84.5582    84.791861    312.46059 -0.040091881 
   10560    626794.24    99.981276   -330.88496    87.424925    84.556771    84.789356    330.88496 -0.040045118 
   10580    627166.59    100.01622   -446.65102    87.429183    84.573187    84.819126    446.65102 -0.039998355 
   10600    627248.86    100.25416   -229.13897    87.433442    84.549568    84.849816    229.13897 -0.039951592 
   10620       627749    100.12361   -252.24444    87.437701    84.577218    84.885576    252.24444 -0.039904829 
   10640    627997.76    99.760079   -266.52263     87.44196    84.590207     84.90204    266.52263 -0.039858065 
   10660     628072.7    100.07572   -375.10483    87.446219    84.594593    84.903633    375.10483 -0.039811302 
   10680    628029.46    100.19987   -369.34197    87.450477    84.629734    84.858403    369.34197 -0.039764539 
   10700     627816.7     99.74487   -152.37969    87.454736    84.580476    84.874925    152.37969 -0.039717776 
   10720    628063.01    99.506142   -150.13664    87.458995    84.566607    84.918014    150.13664 -0.039671013 
   10740    628315.76    99.665178   -445.65897    87.463254    84.551172    84.963558    445.65897 -0.039624249 
   10760    628005.74    99.763667    -352.5868    87.467513     84.54462    84.924082     352.5868 -0.039577486 
   10780    627726.44    99.801839   -361.12854    87.471772    84.545312    84.881484    361.12854 -0.039530723 
   10800    627562.24    99.420656   -162.41972     87.47603     84.53983    84.860652    162.41972  -0.03948396 
   10820    628042.11      99.4206   -449.35061    87.480289    84.574717    84.886377    449.35061 -0.039437197 
   10840       628169    99.772347   -691.07142    87.484548    84.587449    84.886616    691.07142 -0.039390433 
   10860    628170.96    99.447435   -644.14997    87.488807    84.550533     84.91981    644.14997  -0.03934367 
   10880     627938.1    99.775366   -510.50816    87.493066    84.531143    84.903669    510.50816 -0.039296907 
   10900    627984.55    99.470123    -489.3604    87.497324    84.522018    84.914984     489.3604 -0.039250144 
   10920    628073.43    99.641771    -569.9676    87.501583    84.531668    84.913174     569.9676 -0.039203381 
   10940    627925.87    100.07811    -648.9676    87.505842    84.521785    84.899018     648.9676 -0.039156618 
   10960    627590.79      99.8827   -429.40984    87.510101    84.485673    84.885851    429.40984 -0.039109854 
   10980    627379.78    99.804062    -418.9704     87.51436    84.479506    84.859376     418.9704 -0.039063091 
   11000    627298.73    100.07372   -569.61724    87.518618    84.509327    84.814345    569.61724 -0.039016328 
   11020    627075.13    100.19986   -547.92499    87.522877    84.513458    84.775843    547.92499 -0.038969565 
   11040    627444.77    100.24023   -613.07784    87.527136    84.542981    84.792068    613.07784 -0.038922802 
   11060    627647.23    100.08026   -586.98602    87.531395    84.522616    84.835737    586.98602 -0.038876038 
   11080    627325.53    99.963732     -556.921    87.535654    84.490918    84.819938      556.921 -0.038829275 
   11100    627358.78    99.983919    -475.5479    87.539913     84.48311    84.828146     475.5479 -0.038782512 
   11120    627764.09    99.934694   -566.14147    87.544171    84.512945    84.848857    566.14147 -0.038735749 
   11140    627834.63    100.24963   -533.45034     87.54843    84.517142     84.85005    533.45034 -0.038688986 
   11160    627954.72    100.00365   -594.33978    87.552689    84.517382    84.861909    594.33978 -0.038642222 
   11180    628102.21    100.24739   -624.56617    87.556948     84.53306    84.861971    624.56617 -0.038595459 
   11200    627794.48    100.28801   -413.35437    87.561207    84.495106    84.854367    413.35437 -0.038548696 
   11220    627739.71    100.30812   -434.18132    87.565465    84.479574    84.858437    434.18132 -0.038501933 
   11240    627437.97    99.984206   -367.12456    87.569724    84.458758    84.834426    367.12456  -0.03845517 
   11260     627622.1    99.536894   -499.72773    87.573983    84.486294    84.827538    499.72773 -0.038408406 
   11280    628004.87    100.20795    -530.7954    87.578242     84.52473    84.836549     530.7954 -0.038361643 
   11300    627954.17    99.717513   -307.95543    87.582501    84.526967    84.823331    307.95543  -0.03831488 
   11320    628217.34    99.684791   -525.65801     87.58676    84.503606    84.878211    525.65801 -0.038268117 
   11340    627936.62    99.741002   -311.02843    87.591018    84.517481    84.822231    311.02843 -0.038221354 
   11360    628285.53    99.542538   -320.97698    87.595277    84.540669    84.841958    320.97698  -0.03817459 
   11380    628236.03    100.41613   -173.54628    87.599536    84.518065    84.853838    173.54628 -0.038127827 
   11400    628381.86    99.436759   -382.04274    87.603795    84.514071    84.873419    382.04274 -0.038081064 
   11420    628344.17    99.508252   -489.24202    87.608054     84.50704    84.871264    489.24202 -0.038034301 
   11440    627906.78    99.512791   -280.68206    87.612312    84.507869     84.80723    280.68206 -0.037987538 
   11460    628229.22      99.4783   -401.73599    87.616571    84.499032    84.855529    401.73599 -0.037940774 
   11480    628202.38     99.70654   -309.61437     87.62083    84.509422    84.837347    309.61437 -0.037894011 
   11500    627957.37    99.797191   -359.94891    87.625089    84.499067     84.81053    359.94891 -0.037847248 
   11520    627976.95    99.487538   -456.58532    87.629348    84.479429    84.828767    456.58532 -0.037800485 
   11540    628014.42    99.838256   -480.91523    87.633606    84.519899    84.789087    480.91523 -0.037753722 
   11560    628234.72    99.792317    -402.7976    87.637865    84.515504    84.819119     402.7976 -0.037706958 
   11580    628483.01    99.876337   -520.32453    87.642124    84.527589    84.836388    520.32453 -0.037660195 
   11600    628301.06    99.784925   -341.26317    87.646383    84.557333    84.777873    341.26317 -0.037613432 
   11620     628662.5     99.86811   -700.24629    87.650642     84.56829    84.811532    700.24629 -0.037566669 
   11640    628357.34    99.762321   -685.76552    87.654901    84.563404    84.771142    685.76552 -0.037519906 
   11660    628073.84     100.4134   -734.98063    87.659159    84.544014    84.748212    734.98063 -0.037473142 
   11680    627793.11    100.07423   -611.13342    87.663418     84.55012    84.700098    611.13342 -0.037426379 
   11700    627483.67    100.30966   -681.71695    87.667677    84.571522    84.632815    681.71695 -0.037379616 
   11720    627568.99    100.57448   -797.33263    87.671936    84.558858    84.652886    797.33263 -0.037332853 
   11740    627451.74    99.900551   -624.79038    87.676195    84.538305    84.653535    624.79038  -0.03728609 
   11760    627484.21     100.3043   -627.56736    87.680453    84.547606    84.644491    627.56736 -0.037239326 
   11780    627845.04     100.0426   -700.73666    87.684712    84.562861    84.673775    700.73666 -0.037192563 
   11800    627844.71    100.32346    -699.4199    87.688971    84.570612    84.661857     699.4199   -0.0371458 
   11820    628121.05    100.21842   -625.56168     87.69323    84.573257    84.692359    625.56168 -0.037099037 
   11840    627990.63    100.19084   -727.82531    87.697489    84.557828     84.68611    727.82531 -0.037052274 
   11860     627384.9    100.41495   -496.98466    87.701747    84.496138    84.662083    496.98466 -0.037005511 
   11880    627611.37     99.79123    -454.0235    87.706006    84.474115    84.710611     454.0235 -0.036958747 
   11900    627621.67    99.683438   -458.04814    87.710265    84.502551    84.679383    458.04814 -0.036911984 
   11920    627718.35     99.43442   -546.08463    87.714524    84.527231    84.663589    546.08463 -0.036865221 
   11940     627603.8    100.03832   -477.16891    87.718783    84.522055    84.649212    477.16891 -0.036818458 
   11960    627107.71    99.812381   -264.52006    87.723042    84.478369    84.621933    264.52006 -0.036771695 
   11980    627317.82    100.19204   -252.16341      87.7273    84.495629    84.628885    252.16341 -0.036724931 
   12000       627470    99.768104   -273.67863    87.731559    84.513717     84.62719    273.67863 -0.036678168 
   12020     627430.7    99.957421   -477.02207    87.735818    84.458311    84.673292    477.02207 -0.036631405 
   12040    627722.31    100.06884   -269.81423    87.740077    84.471965    84.694842    269.81423 -0.036584642 
   12060    627829.31    99.812377   -306.99349    87.744336    84.479117    84.697995    306.99349 -0.036537879 
   12080    627737.98    99.478555   -153.50018    87.748594    84.443155    84.717628    153.50018 -0.036491115 
   12100    627858.73    100.25274   -240.32967    87.752853    84.467632    84.705259    240.32967 -0.036444352 
   12120    627878.94    99.816656   -260.79395    87.757112    84.419525    84.752144    260.79395 -0.036397589 
   12140    628306.19    99.955314   -326.20546    87.761371    84.440332    84.784801    326.20546 -0.036350826 
   12160    627986.23    99.751998    -355.5217     87.76563    84.441569    84.736272     355.5217 -0.036304063 
   12180    627785.59    100.09121    -239.7605    87.769888    84.420013    84.726717     239.7605 -0.036257299 
   12200    628044.95    100.19719   -229.39651    87.774147    84.463169    84.714302    229.39651 -0.036210536 
   12220    627825.76    99.830331   -282.46191    87.778406    84.453858    84.689964    282.46191 -0.036163773 
   12240    627759.22    100.23056   -241.48309    87.782665    84.419679    84.711162    241.48309  -0.03611701 
   12260    627831.97    100.57942   -352.04391    87.786924    84.434526    84.701973    352.04391 -0.036070247 
   12280    627365.82    99.847016   -264.28401    87.791183    84.349285    84.720508    264.28401 -0.036023483 
   12300    627574.65    100.08921    -364.0303    87.795441    84.381384    84.712361     364.0303  -0.03597672 
   12320    627529.56    99.985356   -482.18073      87.7997    84.347539    84.736153    482.18073 -0.035929957 
   12340    627577.59    100.28344   -358.73476    87.803959    84.353421    84.732618    358.73476 -0.035883194 
   12360    627939.07     100.1748   -412.61565    87.808218    84.440994    84.689389    412.61565 -0.035836431 
   12380    627583.47    100.31601   -366.69262    87.812477    84.386547    84.691934    366.69262 -0.035789667 
   12400    627885.72    100.37281   -525.03656    87.816735    84.435739    84.679251    525.03656 -0.035742904 
   12420    628238.05    100.04143   -528.69875    87.820994    84.455454    84.702882    528.69875 -0.035696141 
   12440    628263.14    100.26623   -467.93131    87.825253    84.419396    84.738335    467.93131 -0.035649378 
   12460    628693.12    100.26033   -440.37413    87.829512    84.500126    84.711209    440.37413 -0.035602615 
   12480    628923.71    99.836242   -429.45528    87.833771    84.470168    84.768223    429.45528 -0.035555851 
   12500    628799.14    99.904454   -542.93788     87.83803     84.47897    84.738495    542.93788 -0.035509088 
   12520    629083.04    100.19901   -622.10226    87.842288    84.512075    84.739436    622.10226 -0.035462325 
   12540    629026.77    99.582671   -438.31251    87.846547    84.484913    84.754989    438.31251 -0.035415562 
   12560    628857.43    100.15474   -338.68119    87.850806    84.513751    84.699153    338.68119 -0.035368799 
   12580    629013.95    99.828905   -243.79753    87.855065    84.498941    84.730976    243.79753 -0.035322035 
   12600    628938.48    99.923281   -441.33262    87.859324     84.50045     84.71519    441.33262 -0.035275272 
   12620    628611.67    99.973748   -422.51125    87.863582     84.51389    84.653602    422.51125 -0.035228509 
   12640    628638.37    99.615725   -483.24073    87.867841    84.482451    84.684597    483.24073 -0.035181746 
   12660    628548.65    99.865301   -304.03123      87.8721     84.51307    84.637731    304.03123 -0.035134983 
   12680    628923.96    99.737501   -281.04977    87.876359    84.476309    84.721017    281.04977 -0.035088219 
   12700       629106    99.705517   -234.38936    87.880618    84.448058    84.769781    234.38936 -0.035041456 
   12720    628973.04    100.22578   -254.66749    87.884876    84.464067    84.731695    254.66749 -0.034994693 
   12740    629177.52      99.8769   -452.08697    87.889135    84.429956    84.789377    452.08697  -0.03494793 
   12760       629368    99.905431   -281.86477    87.893394    84.476193    84.764517    281.86477 -0.034901167 
   12780    629183.11    100.19264   -131.58291    87.897653    84.461185    84.750566    131.58291 -0.034854404 
   12800    629088.44    99.560039    -152.6833    87.901912    84.434264    84.760724     152.6833  -0.03480764 
   12820    629327.18    99.885533   -234.88239    87.906171    84.482264    84.740611    234.88239 -0.034760877 
   12840    629457.76    100.53554   -308.62876    87.910429    84.468862    84.767533    308.62876 -0.034714114 
   12860    629492.16    100.04753   -366.83551    87.914688    84.512413    84.724377    366.83551 -0.034667351 
   12880    629388.86    100.10995   -223.96479    87.918947    84.527759    84.690992    223.96479 -0.034620588 
   12900    629226.29    100.33333   -343.62789    87.923206    84.512617    84.680184    343.62789 -0.034573824 
   12920    629231.77    100.07476    -184.0564    87.927465    84.507773    84.681674     184.0564 -0.034527061 
   12940    629285.78    100.21061   -421.83264    87.931723    84.493139    84.699508    421.83264 -0.034480298 
   12960    629206.57    100.51073   -554.27738    87.935982    84.477826    84.700096    554.27738 -0.034433535 
   12980    629141.99    100.38023   -417.99663    87.940241    84.468075    84.697077    417.99663 -0.034386772 
   13000    628737.33    100.36968    -270.3418      87.9445    84.443292    84.663343     270.3418 -0.034340008 
   13020    629048.78    100.65174   -447.39652    87.948759    84.455003    84.689434    447.39652 -0.034293245 
   13040    629043.32    100.26689   -543.08049    87.953017    84.406909     84.73285    543.08049 -0.034246482 
   13060    628757.43    100.28184   -550.59817    87.957276    84.403896    84.693263    550.59817 -0.034199719 
[...]
  396740    1142462.4    99.799246   -175.13692    169.65836    81.390235    82.735967    175.13692   0.86290543 
  396760    1142060.9    99.656321   -200.44212    169.66261    81.413142    82.681546    200.44212   0.86295219 
  396780    1142666.6    99.792325   -122.81216    169.66687    81.429246     82.70696    122.81216   0.86299895 
  396800    1142906.6    99.891274   -136.20291    169.67113    81.446465    82.704764    136.20291   0.86304572 
  396820    1142331.5     99.78838   -192.14918    169.67539     81.46211    82.645201    192.14918   0.86309248 
  396840    1143238.4    100.22754   -236.52333    169.67965    81.455464    82.715487    236.52333   0.86313924 
  396860    1142850.4    100.06706   -159.21951    169.68391    81.448801    82.692102    159.21951   0.86318601 
  396880    1142320.2    100.09813   -165.16165    169.68817    81.455343    82.645027    165.16165   0.86323277 
  396900    1142383.9    99.758155   -143.11838    169.69243    81.456407    82.646478    143.11838   0.86327953 
  396920    1141998.9    100.13769   -157.95503    169.69668    81.450225    82.622828    157.95503    0.8633263 
  396940    1142096.4    100.28086   -174.17223    169.70094    81.440113    82.638062    174.17223   0.86337306 
  396960    1141965.7    99.964247   -118.96255     169.7052    81.418336    82.648632    118.96255   0.86341982 
  396980    1141526.6     99.97915    -94.47688    169.70946    81.402142    82.631215     94.47688   0.86346659 
  397000    1142132.4    99.997275   -116.46207    169.71372    81.392549    82.682739    116.46207   0.86351335 
  397020    1142174.7    100.82561   -117.67809    169.71798    81.411786    82.664189    117.67809   0.86356011 
  397040    1142136.8    100.23981   -103.02645    169.72224    81.415205    82.655898    103.02645   0.86360688 
  397060    1141435.3    100.58977   -25.709942     169.7265    81.387362    82.631319    25.709942   0.86365364 
  397080    1141169.2    100.54935   -48.931721    169.73076    81.399485    82.597682    48.931721    0.8637004 
  397100    1141714.1     100.7564   -173.57638    169.73501    81.412857    82.621472    173.57638   0.86374717 
  397120    1140859.1    100.68214   -88.692092    169.73927    81.413668    82.556706    88.692092   0.86379393 
  397140    1140387.9     100.6836    3.6645038    169.74353    81.390308     82.54422   -3.6645038   0.86384069 
  397160    1140575.1    100.54118    47.451499    169.74779    81.371646    82.574637   -47.451499   0.86388746 
  397180    1140831.7    100.46763   -112.88924    169.75205    81.390638    82.571866    112.88924   0.86393422 
  397200    1141548.6    100.84001   -122.28191    169.75631    81.395248    82.616999    122.28191   0.86398098 
  397220    1141148.2    100.19085   -62.281932    169.76057    81.357666      82.6241    62.281932   0.86402774 
  397240    1140890.3    100.62742   -2.9488766    169.76483    81.351637    82.609481    2.9488766   0.86407451 
  397260      1141512    100.29426   -4.5801439    169.76908    81.358274    82.645681    4.5801439   0.86412127 
  397280    1141104.2    100.17708   -50.322788    169.77334    81.363686    82.608587    50.322788   0.86416803 
  397300    1141898.8    100.06162   -133.34851     169.7776    81.390746    82.636554    133.34851    0.8642148 
  397320    1142323.8    99.941037   -144.20959    169.78186    81.388854    82.667157    144.20959   0.86426156 
  397340    1142431.2    99.991965   -131.40148    169.78612    81.381424    82.680401    131.40148   0.86430832 
  397360    1142525.8    99.831005   -70.822513    169.79038    81.384866    82.681677    70.822513   0.86435509 
  397380    1142669.4    99.831856   -186.62944    169.79464    81.403121    82.671456    186.62944   0.86440185 
  397400    1143046.2    99.406811   -213.45602     169.7989    81.394396    82.705508    213.45602   0.86444861 
  397420    1143533.9    100.06701   -141.33921    169.80316    81.422541    82.710119    141.33921   0.86449538 
  397440    1143726.7    100.18272   -87.228882    169.80741    81.423185    82.721336    87.228882   0.86454214 
  397460    1144128.2     99.85502   -178.64368    169.81167    81.412587    82.759068    178.64368    0.8645889 
  397480    1143795.2    99.783986    -230.5324    169.81593    81.396392    82.749369     230.5324   0.86463567 
  397500    1143561.6    99.729365    -199.3282    169.82019    81.390204    82.736683     199.3282   0.86468243 
  397520    1143608.7    99.900485   -143.45042    169.82445     81.38726    82.741011    143.45042   0.86472919 
  397540    1143653.2    99.744774   -174.78004    169.82871     81.40237    82.726792    174.78004   0.86477596 
  397560    1144058.6      99.7459   -253.75716    169.83297     81.40222    82.754193    253.75716   0.86482272 
  397580    1144014.9    99.814507   -275.59327    169.83723    81.427898    82.722868    275.59327   0.86486948 
  397600    1143883.6    99.931405    -254.6113    169.84148    81.418561    82.720783     254.6113   0.86491625 
  397620      1143838    100.28227   -129.06982    169.84574    81.414484    82.719556    129.06982   0.86496301 
  397640    1143996.2    99.924987   -184.24636       169.85    81.435863    82.707198    184.24636   0.86500977 
  397660    1144041.3    100.26871   -150.31426    169.85426    81.422903     82.72155    150.31426   0.86505653 
  397680    1144251.2    100.25906   -211.57926    169.85852    81.442906    82.714332    211.57926    0.8651033 
  397700    1143715.7    100.17729   -171.05507    169.86278    81.383274     82.73413    171.05507   0.86515006 
  397720      1144513    100.67332   -123.94091    169.86704    81.404971    82.767666    123.94091   0.86519682 
  397740    1144026.5    100.51314   -79.354921     169.8713    81.399469    82.735996    79.354921   0.86524359 
  397760    1143961.7    99.880291   -59.389995    169.87555    81.427928    82.700324    59.389995   0.86529035 
  397780    1144401.3    100.44351   -75.886374    169.87981    81.465589    82.691784    75.886374   0.86533711 
  397800      1144016    100.29113   -16.624044    169.88407    81.415743    82.712482    16.624044   0.86538388 
  397820    1144445.1    100.14284   -98.187577    169.88833     81.37667    82.781156    98.187577   0.86543064 
  397840    1144472.5    100.51537   -26.021558    169.89259    81.404232    82.753038    26.021558    0.8654774 
  397860    1144309.2    100.31216   -90.809291    169.89685    81.388926    82.754715    90.809291   0.86552417 
  397880    1144045.3    100.12772    5.2562241    169.90111    81.405769     82.71644   -5.2562241   0.86557093 
  397900    1143655.4     100.1122    35.396518    169.90537    81.394783    82.697338   -35.396518   0.86561769 
  397920    1143951.6    100.25962   -16.673603    169.90963    81.439075     82.67169    16.673603   0.86566446 
  397940    1144689.9    100.26393   -46.729921    169.91388    81.480782    82.680635    46.729921   0.86571122 
  397960    1144388.7    99.861371   -51.737882    169.91814    81.454878    82.683094    51.737882   0.86575798 
  397980    1144855.9    99.990453   -62.824921     169.9224    81.479859    82.689413    62.824921   0.86580475 
  398000    1145165.4    100.08404   -69.168757    169.92666    81.478595    82.710983    69.168757   0.86585151 
  398020    1144822.3    99.650663   -100.31591    169.93092    81.451394     82.71174    100.31591   0.86589827 
  398040    1145049.5    99.935002   -133.34477    169.93518    81.449677    82.727824    133.34477   0.86594504 
  398060    1144700.6    99.949403   -102.58538    169.93944    81.411033    82.739799    102.58538    0.8659918 
  398080    1144498.5     99.74721   -146.47124     169.9437    81.412866    82.721257    146.47124   0.86603856 
  398100    1144625.1    100.07223   -205.63682    169.94795    81.440582    82.700179    205.63682   0.86608533 
  398120    1144337.4    99.914092   -236.00665    169.95221    81.432008    82.686023    236.00665   0.86613209 
  398140    1144040.3    99.944325   -189.05341    169.95647    81.437176    82.657243    189.05341   0.86617885 
  398160    1144391.6    99.947808   -252.68683    169.96073    81.423836    82.694095    252.68683   0.86622561 
  398180      1144725    100.09762   -247.65915    169.96499    81.436271    82.703483    247.65915   0.86627238 
  398200    1144752.7    100.24552   -322.43388    169.96925    81.412538    82.727526    322.43388   0.86631914 
  398220    1144148.5    99.921666   -296.01945    169.97351    81.383958    82.710827    296.01945    0.8663659 
  398240    1144602.3    100.14532   -302.27944    169.97777    81.414223      82.7108    302.27944   0.86641267 
  398260    1144831.6    100.00588   -293.51756    169.98203    81.395107    82.744724    293.51756   0.86645943 
  398280    1144008.4     100.5024   -264.77328    169.98628    81.369332    82.709345    264.77328   0.86650619 
  398300    1144497.3    99.943204   -211.67062    169.99054    81.420595    82.690526    211.67062   0.86655296 
  398320    1145055.9    100.67024    -260.8712     169.9948    81.456045    82.692808     260.8712   0.86659972 
  398340    1145195.5    100.12569   -150.09602    169.99906    81.466555    82.690148    150.09602   0.86664648 
  398360      1145175    100.11124   -166.73228    170.00332    81.451167    82.702214    166.73228   0.86669325 
  398380    1144926.9    100.27405   -87.492282    170.00758    81.444739    82.688754    87.492282   0.86674001 
  398400    1145414.2    100.34576   -142.05044    170.01184    81.462157    82.704184    142.05044   0.86678677 
  398420      1145390    99.686939   -79.153017     170.0161    81.468925    82.693495    79.153017   0.86683354 
  398440    1145698.5    99.612807   -50.082033    170.02035    81.464874    82.717812    50.082033    0.8668803 
  398460    1145396.5      99.6373   -80.926392    170.02461    81.437296    82.721938    80.926392   0.86692706 
  398480    1145390.2    100.02094   -28.267728    170.02887    81.403928     82.75332    28.267728   0.86697383 
  398500    1144902.9     99.76662   -38.182628    170.03313    81.366791    82.753791    38.182628   0.86702059 
  398520    1145017.9    99.415077    -51.30509    170.03739    81.329912    82.797563     51.30509   0.86706735 
  398540    1144669.1    100.10936    60.282705    170.04165    81.316809    82.783603   -60.282705   0.86711412 
  398560    1145031.4    99.621018    53.235637    170.04591    81.326224    82.798141   -53.235637   0.86716088 
  398580      1145144     99.51325    45.134443    170.05017    81.342162    82.787985   -45.134443   0.86720764 
  398600      1145146    99.729793    86.814657    170.05443    81.363586    82.764264   -86.814657   0.86725441 
  398620    1144653.9    99.623642    29.414624    170.05868    81.336825    82.753844   -29.414624   0.86730117 
  398640    1144458.3    100.33045    17.470201    170.06294    81.335653    82.738821   -17.470201   0.86734793 
  398660    1145251.9    99.983493    11.110409     170.0672     81.35635    82.773059   -11.110409   0.86739469 
  398680    1145400.4    99.912744   -34.353718    170.07146     81.36513    82.772787    34.353718   0.86744146 
  398700    1146107.5    100.04058    24.798652    170.07572    81.395498    82.790908   -24.798652   0.86748822 
  398720    1146125.7    100.06216    33.021956    170.07998     81.38627    82.799538   -33.021956   0.86753498 
  398740    1146377.6    99.990714    -105.9925    170.08424    81.390666    82.811191     105.9925   0.86758175 
  398760    1147098.7    100.22986    -182.1425     170.0885    81.430939    82.820228     182.1425   0.86762851 
  398780    1146916.9    100.03086   -107.97983    170.09275    81.418722    82.817452    107.97983   0.86767527 
  398800    1146957.7    99.962032   -9.4659032    170.09701    81.424663     82.81228    9.4659032   0.86772204 
  398820    1147180.6    100.18445   -74.407596    170.10127    81.447213    82.803369    74.407596    0.8677688 
  398840    1147018.3     100.4017    -176.6718    170.10553    81.443658    82.793194     176.6718   0.86781556 
  398860      1147078    100.08511   -297.45016    170.10979    81.415008    82.824569    297.45016   0.86786233 
  398880    1146637.9    100.12159   -216.08437    170.11405    81.423623    82.781954    216.08437   0.86790909 
  398900    1146483.7    100.24048   -103.55139    170.11831    81.405985    82.786689    103.55139   0.86795585 
  398920    1146627.6    100.14228   -163.09907    170.12257    81.410007     82.79091    163.09907   0.86800262 
  398940    1146805.9    99.921848   -266.87723    170.12682    81.439228    82.772007    266.87723   0.86804938 
  398960      1146541    99.950716   -291.62683    170.13108    81.451742    82.738103    291.62683   0.86809614 
  398980    1145926.8    99.734833   -203.40734    170.13534    81.440788    82.702829    203.40734   0.86814291 
  399000    1145601.3    100.06026   -62.792064     170.1396    81.439574    82.678505    62.792064   0.86818967 
  399020    1145902.7    100.23549   -97.134416    170.14386    81.451367    82.686206    97.134416   0.86823643 
  399040    1146480.7    99.932458    -169.3293    170.14812    81.465297    82.711702     169.3293    0.8682832 
  399060    1146854.6     100.1935    -128.2677    170.15238    81.481907     82.71974     128.2677   0.86832996 
  399080      1146468     99.51868   -57.440314    170.15664    81.428224      82.7443    57.440314   0.86837672 
  399100    1146669.4    99.687959   -113.61439     170.1609    81.417934    82.767225    113.61439   0.86842349 
  399120    1146355.4    99.748918   -3.7762997    170.16515    81.393053    82.767779    3.7762997   0.86847025 
  399140    1146468.8    99.579254   -53.852263    170.16941     81.40215    82.764649    53.852263   0.86851701 
  399160    1146657.1    99.872382   -87.438038    170.17367    81.443988    82.733642    87.438038   0.86856377 
  399180    1146157.5    99.728855   -57.796695    170.17793    81.415496    82.724469    57.796695   0.86861054 
  399200    1146237.5    100.17134    -16.85334    170.18219    81.462332    82.680612     16.85334    0.8686573 
  399220    1146165.4    100.00754   -40.523004    170.18645    81.435046    82.701037    40.523004   0.86870406 
  399240    1146205.5    99.976408    38.602594    170.19071    81.475733    82.660566   -38.602594   0.86875083 
  399260    1146599.5    100.12542   -38.119438    170.19497      81.5084    82.653771    38.119438   0.86879759 
  399280    1146746.4    100.35704   -58.690937    170.19922    81.512667    82.657962    58.690937   0.86884435 
  399300    1146367.7     99.66866    -105.4681    170.20348    81.508831     82.63249     105.4681   0.86889112 
  399320    1146467.1    100.04398   -46.839575    170.20774    81.505979    82.640481    46.839575   0.86893788 
  399340    1145945.9    100.26979   -31.573965      170.212    81.496359    82.610594    31.573965   0.86898464 
  399360    1146148.8    100.27088    -146.2951    170.21626    81.503981    82.615423     146.2951   0.86903141 
  399380    1146578.9     100.5928   -143.09404    170.22052    81.506437    82.641865    143.09404   0.86907817 
  399400    1146615.4    100.40129   -191.81016    170.22478    81.513783    82.634987    191.81016   0.86912493 
  399420    1145885.1    100.47919   -63.253376    170.22904      81.4643    82.630444    63.253376    0.8691717 
  399440    1145492.4    100.41086    -123.1457     170.2333    81.447631     82.61697     123.1457   0.86921846 
  399460    1145514.1    100.54291   -205.96645    170.23755    81.439605    82.624604    205.96645   0.86926522 
  399480    1145647.1    100.24221   -175.71614    170.24181    81.431509    82.640346    175.71614   0.86931199 
  399500    1145898.2    100.15022   -233.15842    170.24607    81.466493    82.620897    233.15842   0.86935875 
  399520    1145210.3    99.863424   -200.02262    170.25033    81.451804    82.584122    200.02262   0.86940551 
  399540    1145167.3    100.10364   -228.94017    170.25459    81.431009    82.600047    228.94017   0.86945228 
  399560    1145961.4    100.30421   -286.51079    170.25885    81.449792    82.636198    286.51079   0.86949904 
  399580    1145972.3    99.647497   -301.40785    170.26311     81.44205     82.64277    301.40785    0.8695458 
  399600    1146158.7     100.3659   -264.81391    170.26737    81.445202    82.650951    264.81391   0.86959256 
  399620      1146767    99.793693   -264.67354    170.27162    81.433166    82.704962    264.67354   0.86963933 
  399640    1146897.9    99.741728   -208.53158    170.27588    81.411122    82.734737    208.53158   0.86968609 
  399660    1146679.9    100.23112   -319.57864    170.28014    81.383021    82.745502    319.57864   0.86973285 
  399680    1146464.1    99.742622    -260.7482     170.2844    81.377913    82.733055     260.7482   0.86977962 
  399700    1145663.5    99.424181   -155.99978    170.28866    81.333917    82.717933    155.99978   0.86982638 
  399720    1145710.5    99.983711   -189.79289    170.29292     81.34246     82.71057    189.79289   0.86987314 
  399740    1145654.2    99.687226   -119.10091    170.29718    81.317943     82.72937    119.10091   0.86991991 
  399760    1145257.4    99.613969   -123.38497    170.30144    81.295181    82.721805    123.38497   0.86996667 
  399780    1145457.3     100.0798   -125.34546     170.3057    81.268651    82.761177    125.34546   0.87001343 
  399800    1145786.6    99.807901   -181.31261    170.30995    81.303224    82.747703    181.31261    0.8700602 
  399820    1146543.7    99.900348   -144.93444    170.31421    81.336833    82.766097    144.93444   0.87010696 
  399840    1146588.5    100.31079   -52.925045    170.31847    81.367629    82.735936    52.925045   0.87015372 
  399860    1146522.2    99.821493     36.94687    170.32273    81.357974    82.738901    -36.94687   0.87020049 
  399880    1147336.7    100.33552      -135.24    170.32699    81.401258    82.751583       135.24   0.87024725 
  399900    1147817.8    99.880945   -75.178505    170.33125    81.412973    82.772294    75.178505   0.87029401 
  399920      1148019    100.15346   -66.283771    170.33551     81.43917    82.758106    66.283771   0.87034078 
  399940    1148412.7    100.18988    27.156325    170.33977    81.443074    82.780451   -27.156325   0.87038754 
  399960    1148627.3    100.14681    35.449818    170.34402    81.442428    82.794503   -35.449818    0.8704343 
  399980    1149198.9    99.883703   -54.937542    170.34828    81.460582    82.815176    54.937542   0.87048107 
  400000    1148981.7    100.24499   -16.909497    170.35254    81.447223    82.811035    16.909497   0.87052783 
Loop time of 35858.8 on 64 procs for 400000 steps with 72040 atoms

Performance: 0.964 ns/day, 24.902 hours/ns, 11.155 timesteps/s
99.8% CPU use with 64 MPI tasks x 1 OpenMP threads

MPI task timing breakdown:
Section |  min time  |  avg time  |  max time  |%varavg| %total
---------------------------------------------------------------
Pair    | 3121.7     | 9219.3     | 13944      |3651.2 | 25.71
Bond    | 174.83     | 502.48     | 699.4      | 689.6 |  1.40
Kspace  | 1308       | 6240.6     | 12655      |4638.7 | 17.40
Neigh   | 18619      | 18766      | 18914      |  66.8 | 52.33
Comm    | 710.02     | 885.5      | 1063.2     | 352.6 |  2.47
Output  | 8.3174     | 8.5678     | 8.9438     |   4.1 |  0.02
Modify  | 173.81     | 211.29     | 259.45     | 139.9 |  0.59
Other   |            | 24.88      |            |       |  0.07

Nlocal:        1125.62 ave        2050 max           0 min
Histogram: 9 5 4 7 4 5 3 6 6 15
Nghost:        11770.0 ave       20288 max        2448 min
Histogram: 7 9 0 8 8 1 15 0 0 16
Neighs:       920955.0 ave 2.01424e+06 max           0 min
Histogram: 15 3 8 6 3 4 6 2 7 10

Total # of neighbors = 58941120
Ave neighs/atom = 818.17213
Ave special neighs/atom = 5.9972238
Neighbor list builds = 400000
Dangerous builds not checked
Total wall time: 9:57:44
