LAMMPS (29 Oct 2020)
OMP_NUM_THREADS environment is not set. Defaulting to 1 thread. (../comm.cpp:94)
  using 1 OpenMP thread(s) per MPI task
####################################################
#    This program is free software: you can redistribute it and/or modify
#    it under the terms of the GNU General Public License as published by
#    the Free Software Foundation, either version 3 of the License, or
#    (at your option) any later version.
#
#    This program is distributed in the hope that it will be useful,
#    but WITHOUT ANY WARRANTY; without even the implied warranty of
#    MERCHANTABILITY or FITNESS FOR A PARTICULAR PURPOSE.  See the
#    GNU General Public License for more details.


units		real        ## defines the units style used herein. More information: https://docs.lammps.org/units.html
atom_style	full        ## defines the atom style used herein. More information: https://docs.lammps.org/atom_style.html

# Styles
pair_style      lj/cut/coul/long 15.0 10.0      ## sets the formula(s) LAMMPS uses to compute pairwise interactions; here, lennard-jones (LJ) with long-range Coulomb interaction. More: https://docs.lammps.org/pair_lj_cut_coul.html
pair_modify     shift no                        ## the shift keyword determines whether a Lennard-Jones potential is shifted at its cutoff to 0.0. More: https://docs.lammps.org/pair_modify.html
kspace_style    pppm 1.0e-4                     ## defines a long-range solver for LAMMPS to compute long-range Coulombic interactions. Note: requires use of a matching pair style, i.e. PPPM with coul/long. More: https://docs.lammps.org/kspace_style.html
bond_style      harmonic                        ## defined based off the forcefield used to construct the system; models the atoms' interactions
angle_style     harmonic
dihedral_style  opls
improper_style  cvff
special_bonds   lj 0 0 1 coul 0 0 1

read_data       100K_PMP.lmps      ## input lammps datafile, equilibriated until structure nears experimental properties
Reading data file ...
  orthogonal box = (82.411864 82.411864 82.411864) to (167.58814 167.58814 167.58814)
  4 by 4 by 4 MPI processor grid
  reading atoms ...
  72040 atoms
  reading velocities ...
  72040 velocities
  scanning bonds ...
  2 = max bonds/atom
  scanning angles ...
  6 = max angles/atom
  scanning dihedrals ...
  15 = max dihedrals/atom
  reading bonds ...
  72020 bonds
  reading angles ...
  143880 angles
  reading dihedrals ...
  215640 dihedrals
Finding 1-2 1-3 1-4 neighbors ...
  special bond factors lj:    0.0      0.0      1.0     
  special bond factors coul:  0.0      0.0      1.0     
     4 = max # of 1-2 neighbors
     9 = max # of 1-3 neighbors
    13 = max # of special neighbors
  special bonds CPU = 1.529 seconds
  read_data CPU = 3.435 seconds

dielectric      1.0
neighbor    	1.0 bin
neigh_modify	delay 0 every 1 check no        ## this is to make sure that the neighbor list is updated every timestep, and the atoms don't get lost as the system is being deformed ##

timestep	    1.0                             ## unit = fs, per "real" unit style
run_style       verlet                          ## defines algorithm used for simulation computation; verlet integration is a numerical method used to integrate Newton's equations of motion.

variable stress equal press*-1                         ## computes stress as the negative of press values
variable engStrain equal (lx-91.07191)/91.07191      ## computes engineering strain; lx_0 must be found and inputted manually (for now)

thermo		    20                                                               ## output log data (headers in thermo_style), recorded at every timestep in numList.txt
thermo_style    custom step vol temp press lx ly lz v_stress v_engStrain         ## data headers of output log file. More: https://docs.lammps.org/thermo_style.html

################# Deformation ##################

fix 1 all npt temp 100 100 100 y 1 1 100.0 z 1 1 100.0      ## stress normal to the x direction can vary; external pressure (y and z) = 1atm ##

fix 2 all deform 1 x scale 2.0 remap x                      ## sets a uniaxial (x-direction) deformation in motion, scaling a set amount (here, 4.0x) the initial length


################# Dumping ##################

reset_timestep 0

dump dump2 all custom 4000 sim.lammpstrj id mol type q xs ys zs ix iy iz

restart 8000 PMP.restart

run 		80000              ## this depends on the overall strain rate, where strain rate = deformScale / runTimeSteps (consider units!)
PPPM initialization ...
  using 12-bit tables for long-range coulomb (../kspace.cpp:328)
  G vector (1/distance) = 0.20855304
  grid = 24 24 24
  stencil order = 5
  estimated absolute RMS force accuracy = 0.019795394
  estimated relative force accuracy = 5.9613242e-05
  using double precision FFTW3
  3d grid and FFT values/proc = 1331 216
Neighbor list info ...
  update every 1 steps, delay 0 steps, check no
  max neighbors/atom: 2000, page size: 100000
  master list distance cutoff = 16
  ghost atom cutoff = 16
  binsize = 8, bins = 11 11 11
  1 neighbor lists, perpetual/occasional/extra = 1 0 0
  (1) pair lj/cut/coul/long, perpetual
      attributes: half, newton on
      pair build: half/bin/newton
      stencil: half/bin/3d/newton
      bin: standard
Per MPI rank memory allocation (min/avg/max) = 32.44 | 32.78 | 33.22 Mbytes
Step Volume Temp Press Lx Ly Lz v_stress v_engStrain 
       0     617953.6    99.928272    4326.2873    85.176271    85.176271    85.176271   -4326.2873 -0.064736086 
      20    621865.03    102.08598    1975.7106    85.197565     85.41173    85.457745   -1975.7106  -0.06450227 
      40    622534.18    101.79568     838.0263    85.218859    85.420029    85.520016    -838.0263 -0.064268454 
      60    620674.18    101.28258    385.67312    85.240153    85.302189    85.360958   -385.67312 -0.064034638 
      80    619688.76    101.43669     660.1884    85.261447    85.208323    85.298009    -660.1884 -0.063800822 
     100     618427.5    101.24596    697.83785    85.282741    85.101635    85.209837   -697.83785 -0.063567006 
     120    619351.84    101.38701    527.59802    85.304035     85.15658    85.260847   -527.59802  -0.06333319 
     140    620145.07    101.22296   -199.05293     85.32533    85.187867    85.317394    199.05293 -0.063099374 
     160    618811.08    101.11194   -138.22497    85.346624    85.084322    85.216206    138.22497 -0.062865558 
     180    619806.94    100.74513    139.65404    85.367918    85.125002    85.291275   -139.65404 -0.062631742 
     200    620441.82    100.60336    73.839725    85.389212    85.162017    85.320249   -73.839725 -0.062397926 
     220    620151.84    100.54719    288.89873    85.410506    85.131374    85.289801   -288.89873  -0.06216411 
     240    621279.06     100.6131   -541.63442      85.4318     85.20829    85.346421    541.63442 -0.061930294 
     260    620683.74    100.28611   -243.23705    85.453094    85.171238    85.280476    243.23705 -0.061696478 
     280    621092.57     100.0334   -237.78839    85.474388    85.196531    85.290061    237.78839 -0.061462662 
     300    621293.33    100.16582    -112.6436    85.495682    85.182533    85.310396     112.6436 -0.061228846 
     320    621015.95    100.15366    -274.2174    85.516976    85.139818    85.293846     274.2174  -0.06099503 
     340    621698.77    100.13786   -258.42937     85.53827    85.163022    85.343114    258.42937 -0.060761214 
     360     621972.8    99.927234   -549.66248    85.559564    85.154529    85.367993    549.66248 -0.060527398 
     380    621461.97    99.777782   -321.89581    85.580858    85.083943    85.347402    321.89581 -0.060293582 
     400    621541.99    99.706825   -362.17119    85.602152    85.086024    85.335072    362.17119 -0.060059766 
     420    622028.38    100.06025   -226.44883    85.623446    85.080841    85.385813    226.44883  -0.05982595 
     440     622245.4    99.831676   -168.31006    85.644741    85.069156    85.406097    168.31006 -0.059592134 
     460    622241.01    99.910918   -444.04901    85.666035    85.083369    85.370002    444.04901 -0.059358318 
     480    622259.12    99.589847   -265.13166    85.687329    85.065055    85.369646    265.13166 -0.059124502 
     500    622309.97     99.81572   -225.98481    85.708623    85.069698    85.350752    225.98481 -0.058890686 
     520     622554.6    99.759881   -191.36462    85.729917    85.090057     85.34267    191.36462  -0.05865687 
     540    622837.38    99.762036   -349.67921    85.751211    85.120605      85.3296    349.67921 -0.058423054 
     560    622799.77    99.597507   -157.33001    85.772505    85.121504    85.302363    157.33001 -0.058189238 
     580    622725.45    99.784038   -149.21958    85.793799    85.119763    85.272758    149.21958 -0.057955422 
     600    622834.94    100.01774    -220.3552    85.815093    85.135509    85.250817     220.3552 -0.057721606 
     620    622342.91    99.733016   -116.49099    85.836387    85.068213    85.229709    116.49099  -0.05748779 
     640     622098.1    100.46358   -9.4664709    85.857681    85.052059     85.19123    9.4664709 -0.057253974 
     660    622640.48    100.15277   -152.84377    85.878975    85.074967    85.221409    152.84377 -0.057020158 
     680    622825.34    100.21729    18.483463    85.900269    85.074245    85.226301   -18.483463 -0.056786342 
     700    623104.55    100.26911   -88.607537    85.921563    85.082367    85.235241    88.607537 -0.056552526 
     720    623171.73    100.16205   -34.588512    85.942857    85.112166    85.193471    34.588512  -0.05631871 
     740    623478.41    100.00186   -109.92665    85.964152    85.139945     85.18648    109.92665 -0.056084894 
     760    623858.44    100.38022   -204.69301    85.985446    85.129216    85.228035    204.69301 -0.055851078 
     780     623967.7    100.36159   -96.969602     86.00674    85.093118     85.25801    96.969602 -0.055617262 
     800    623648.63    100.05459   -63.243438    86.028034    85.065196    85.221284    63.243438 -0.055383446 
     820    623800.46    100.02861   -76.701779    86.049328    85.028676    85.257539    76.701779  -0.05514963 
     840    624178.91    100.42072   -157.59498    86.070622    85.041852    85.274944    157.59498 -0.054915814 
     860    624270.14    99.757957   -107.06737    86.091916    85.039345    85.268826    107.06737 -0.054681998 
     880    624270.31     100.2219   -133.59118     86.11321    85.000106    85.287118    133.59118 -0.054448183 
     900    623961.38     99.92293   -174.47547    86.134504    84.982582    85.241411    174.47547 -0.054214367 
     920     623606.9    100.11177   -67.957916    86.155798    84.936795    85.217842    67.957916 -0.053980551 
     940    623851.28      99.6468   -183.56933    86.177092     84.94512    85.221819    183.56933 -0.053746735 
     960    624117.78    99.640177   -195.39651    86.198386    84.996416    85.185721    195.39651 -0.053512919 
     980    623904.22    99.409452   -183.94143     86.21968      84.9787     85.15329    183.94143 -0.053279103 
    1000    623911.26    99.934305   -299.25544    86.240974    84.952695    85.159285    299.25544 -0.053045287 
    1020    623568.43    99.634054   -355.77675    86.262268    84.924032    85.120201    355.77675 -0.052811471 
    1040    623035.83    100.13316   -330.61894    86.283563    84.868041    85.082604    330.61894 -0.052577655 
    1060    623209.25    99.884785   -322.04641    86.304857    84.893835    85.059437    322.04641 -0.052343839 
    1080    623403.66    99.897112   -114.80246    86.326151    84.862871     85.09602    114.80246 -0.052110023 
    1100    623274.37    99.826686    -370.1307    86.347445    84.859384    85.060886     370.1307 -0.051876207 
    1120    623167.77    99.842892   -449.09502    86.368739    84.811826    85.073048    449.09502 -0.051642391 
    1140    623681.97    99.975038   -331.20993    86.390033    84.810915    85.123173    331.20993 -0.051408575 
    1160    623887.73     100.0688   -338.05605    86.411327    84.782564     85.15874    338.05605 -0.051174759 
    1180    624195.75    99.841584   -232.05648    86.432621    84.803761    85.158501    232.05648 -0.050940943 
    1200    624504.27    100.17177   -318.10277    86.453915    84.831094    85.152162    318.10277 -0.050707127 
    1220    624567.05    100.10139   -404.91621    86.475209    84.836623    85.134203    404.91621 -0.050473311 
    1240    624612.22    100.30859   -334.79355    86.496503    84.832023    85.124015    334.79355 -0.050239495 
    1260    624527.17    100.41242   -321.61333    86.517797    84.776163    85.147543    321.61333 -0.050005679 
    1280    624226.99    100.55142   -235.52082    86.539091    84.737762    85.124234    235.52082 -0.049771863 
    1300    624744.56    100.46645   -368.86055    86.560385    84.755104     85.15643    368.86055 -0.049538047 
    1320    624816.21    100.41483   -334.63038     86.58168    84.744158    85.156247    334.63038 -0.049304231 
    1340     624462.6    100.85433   -236.57244    86.602974    84.727699    85.103656    236.57244 -0.049070415 
    1360    624965.53    99.991841   -232.81749    86.624268    84.775281    85.103467    232.81749 -0.048836599 
    1380    624733.67    100.63922   -105.61817    86.645562    84.722572    85.103899    105.61817 -0.048602783 
    1400    625219.63    100.53945   -364.87639    86.666856    84.775071    85.096442    364.87639 -0.048368967 
    1420    625552.75    100.07245   -313.36184     86.68815    84.774648    85.121292    313.36184 -0.048135151 
    1440    625158.47     100.1483   -25.694381    86.709444     84.72364    85.097954    25.694381 -0.047901335 
    1460    624989.16    99.712153   -195.77872    86.730738    84.719984    85.057688    195.77872 -0.047667519 
    1480    625021.56    100.25682   -97.964955    86.752032    84.732038    85.029121    97.964955 -0.047433703 
    1500    624979.38    100.08308   -229.66022    86.773326    84.727531    85.007039    229.66022 -0.047199887 
    1520    625371.46    100.17403   -363.82053     86.79462    84.751594    85.015355    363.82053 -0.046966071 
    1540    625039.28      100.024   -195.84689    86.815914    84.712937    84.988122    195.84689 -0.046732255 
    1560    625242.74    100.41983   -341.34432    86.837208    84.716012    84.991853    341.34432 -0.046498439 
    1580    625553.01    99.779991   -334.58104    86.858502     84.70202    85.027226    334.58104 -0.046264623 
    1600    625547.51    100.24248   -336.99104    86.879796    84.700256     85.00741    336.99104 -0.046030807 
    1620    625480.97    100.42442   -405.43358    86.901091    84.614392    85.063772    405.43358 -0.045796991 
    1640    625328.29    99.535374   -409.75319    86.922385    84.613447    85.023123    409.75319 -0.045563175 
    1660     625543.4    100.00759   -467.11951    86.943679    84.620041    85.024915    467.11951 -0.045329359 
    1680    625800.96    100.30819   -537.12444    86.964973    84.643477    85.015548    537.12444 -0.045095543 
    1700    625883.07    99.891753   -439.26908    86.986267    84.674816    84.974428    439.26908 -0.044861727 
    1720    626062.81    100.12774    -556.5194    87.007561    84.691825    84.960962     556.5194 -0.044627911 
    1740    626493.84    99.769673   -446.64345    87.028855    84.686974    85.003522    446.64345 -0.044394095 
    1760    626466.37    100.01737   -494.18395    87.050149    84.687443    84.978532    494.18395 -0.044160279 
    1780    626468.17    100.23775   -506.13719    87.071443    84.670515     84.97498    506.13719 -0.043926463 
    1800     626269.4    99.590165   -574.06124    87.092737    84.653325    84.944493    574.06124 -0.043692647 
    1820    626435.37    100.00402   -567.75325    87.114031     84.62694    84.972719    567.75325 -0.043458832 
    1840    626683.61    100.19195   -585.92929    87.135325    84.638756    84.973755    585.92929 -0.043225016 
    1860    626301.47    99.632654   -530.99733    87.156619    84.623164    84.916834    530.99733   -0.0429912 
    1880    626089.01    100.33765   -527.02641    87.177913    84.572832    84.917801    527.02641 -0.042757384 
    1900     626305.6    99.957583   -459.74958    87.199207    84.526077     84.97341    459.74958 -0.042523568 
    1920    626561.59    99.670677   -470.61038    87.220502     84.54548    84.967883    470.61038 -0.042289752 
    1940    626595.25    99.914149   -593.45752    87.241796    84.546322     84.95086    593.45752 -0.042055936 
    1960    626899.09    100.17349   -534.75662     87.26309    84.549959    84.967658    534.75662  -0.04182212 
    1980    626844.29    100.06132   -451.14465    87.284384    84.526418     84.96316    451.14465 -0.041588304 
    2000    626937.97    99.854335   -464.25137    87.305678    84.497669    84.984036    464.25137 -0.041354488 
    2020    627156.14    99.885872    -446.8808    87.326972    84.512952    84.977511     446.8808 -0.041120672 
    2040    627402.85    99.778085   -530.87857    87.348266    84.514916     84.98824    530.87857 -0.040886856 
    2060    627645.42    99.752663   -410.82928     87.36956    84.485608    85.029863    410.82928  -0.04065304 
    2080    627564.74    99.793377   -459.81641    87.390854    84.464754    85.019203    459.81641 -0.040419224 
    2100     627396.1    100.40467   -386.00985    87.412148    84.448155    84.992353    386.00985 -0.040185408 
    2120    627460.99    99.690043   -418.25249    87.433442    84.439257    84.989398    418.25249 -0.039951592 
    2140    627945.53    100.13954    -535.6928    87.454736    84.510375    84.962759     535.6928 -0.039717776 
    2160    627863.07    100.31418   -362.77725     87.47603    84.484716    84.956717    362.77725  -0.03948396 
    2180    627974.16    100.09378   -414.46668    87.497324    84.464874    84.971026    414.46668 -0.039250144 
    2200    627815.64    99.643094   -414.36878    87.518618    84.472783    84.920956    414.36878 -0.039016328 
    2220    627376.36    100.51218   -227.95057    87.539913    84.487565    84.826051    227.95057 -0.038782512 
    2240    627776.85    100.04995   -386.27035    87.561207    84.540397    84.806527    386.27035 -0.038548696 
    2260    627608.27    100.38084   -253.48063    87.582501    84.507027     84.79661    253.48063  -0.03831488 
    2280    627662.54    99.927108   -215.58466    87.603795    84.493254    84.797149    215.58466 -0.038081064 
    2300    627988.08    100.22489   -486.53951    87.625089    84.525386    84.788268    486.53951 -0.037847248 
    2320    628090.99    99.973468   -329.04794    87.646383    84.496995    84.810047    329.04794 -0.037613432 
    2340    627699.16    100.20814   -290.63381    87.667677    84.466236    84.767408    290.63381 -0.037379616 
    2360       627995    100.05801   -400.62584    87.688971    84.491642     84.76127    400.62584   -0.0371458 
    2380    628096.15    100.07885   -409.91939    87.710265    84.457549    84.788554    409.91939 -0.036911984 
    2400    627996.57    100.12975   -416.94318    87.731559    84.483864    84.728137    416.94318 -0.036678168 
    2420    628449.68    99.789244   -570.09959    87.752853     84.49775    84.754764    570.09959 -0.036444352 
    2440    628714.94     99.83827   -497.01724    87.774147    84.507952    84.759734    497.01724 -0.036210536 
    2460    628757.34     99.72643   -458.84063    87.795441    84.511232    84.741601    458.84063  -0.03597672 
    2480    628917.28    99.873022   -597.16713    87.816735    84.495869    84.758012    597.16713 -0.035742904 
    2500    628838.88    99.130279   -362.55041     87.83803    84.518226     84.70449    362.55041 -0.035509088 
    2520     629107.6    99.989039   -655.17527    87.859324    84.534352    84.703986    655.17527 -0.035275272 
    2540    629225.27    99.768754    -705.2905    87.880618    84.517483    84.716206     705.2905 -0.035041456 
    2560    628744.71    99.499237   -611.57627    87.901912    84.491333    84.657192    611.57627  -0.03480764 
    2580    628873.17    100.36099   -658.96554    87.923206     84.45372    84.691684    658.96554 -0.034573824 
    2600    628668.65    99.779626   -602.38093      87.9445    84.401637    84.695872    602.38093 -0.034340008 
    2620     629014.4    99.923076   -673.98593    87.965794    84.441228    84.682217    673.98593 -0.034106192 
    2640    629210.04    99.984517    -783.0459    87.987088    84.428462     84.70086     783.0459 -0.033872376 
    2660     629002.4    100.00634   -698.27009    88.008382    84.375069    84.705991    698.27009  -0.03363856 
    2680    629325.07    99.928778   -579.19862    88.029676    84.395293    84.708638    579.19862 -0.033404744 
    2700    629709.82    100.07747   -680.07372     88.05097    84.419735    84.715393    680.07372 -0.033170928 
    2720    629559.79     100.2404   -512.83556    88.072264    84.434628    84.659798    512.83556 -0.032937112 
    2740    629984.78    100.21561   -625.01372    88.093558    84.461386    84.669638    625.01372 -0.032703296 
    2760    629796.31    100.38484   -572.96014    88.114852    84.415629    84.669722    572.96014 -0.032469481 
    2780    629839.19    100.78142   -469.51018    88.136146    84.404801    84.665889    469.51018 -0.032235665 
    2800    630172.68    100.52753   -459.55137    88.157441    84.438222    84.656736    459.55137 -0.032001849 
    2820    630179.41    100.53501   -636.81364    88.178735    84.399756     84.67577    636.81364 -0.031768033 
    2840    629972.61     100.8632   -411.24965    88.200029    84.399025     84.62828    411.24965 -0.031534217 
    2860    629727.44    100.70533   -497.35837    88.221323    84.406323    84.567612    497.35837 -0.031300401 
    2880    629532.63    100.50388   -222.61969    88.242617    84.387816    84.539586    222.61969 -0.031066585 
    2900    630033.31    100.81949   -383.56032    88.263911    84.386471    84.587759    383.56032 -0.030832769 
    2920    629967.11    100.82237   -395.10451    88.285205    84.342464    84.602591    395.10451 -0.030598953 
    2940    630109.37     100.6543   -405.60277    88.306499    84.300538    84.643366    405.60277 -0.030365137 
    2960    630281.68    100.51265   -337.18171    88.327793    84.288019    84.658673    337.18171 -0.030131321 
    2980     630258.9    100.47632   -333.73484    88.349087    84.263942    84.659393    333.73484 -0.029897505 
    3000    630346.15    100.41967     -279.548    88.370381    84.271558     84.64306      279.548 -0.029663689 
    3020    630423.51    100.00958   -430.45476    88.391675    84.257111    84.647566    430.45476 -0.029429873 
    3040    630649.71    99.745177   -625.03367    88.412969    84.272802     84.64178    625.03367 -0.029196057 
    3060    630780.89     100.6018   -415.29226    88.434263    84.291879    84.619846    415.29226 -0.028962241 
    3080    630433.73    99.690687   -429.38596    88.455557    84.258658    84.586251    429.38596 -0.028728425 
    3100    630397.58    100.11388   -368.85279    88.476852    84.230446    84.589367    368.85279 -0.028494609 
    3120     630762.3    99.894113   -692.23091    88.498146    84.264114    84.584132    692.23091 -0.028260793 
    3140    630990.64    99.861912   -640.11928     88.51944    84.266215    84.592289    640.11928 -0.028026977 
    3160    631275.25    100.13524   -675.65434    88.540734    84.272276    84.604005    675.65434 -0.027793161 
    3180    630664.63    99.637564    -430.7812    88.562028    84.229486    84.544775     430.7812 -0.027559345 
    3200    630881.12    99.572062   -646.38977    88.583322    84.234055     84.54888    646.38977 -0.027325529 
    3220    630832.23    100.14509   -548.35919    88.604616    84.226681    84.529411    548.35919 -0.027091713 
    3240    630980.63    99.535499   -680.82191     88.62591    84.215815    84.539887    680.82191 -0.026857897 
    3260    630923.81    100.05936   -564.59095    88.647204    84.170087    84.557883    564.59095 -0.026624081 
    3280    630940.09    99.977596   -668.93081    88.668498    84.137682    84.572318    668.93081 -0.026390265 
    3300    630962.89    99.639844   -549.14159    88.689792    84.150273    84.542415    549.14159 -0.026156449 
    3320    631136.28    100.16796   -558.78607    88.711086    84.157846    84.537741    558.78607 -0.025922633 
    3340    631321.64    100.28345   -580.90664     88.73238     84.15425    84.545887    580.90664 -0.025688817 
    3360    631663.65    99.602908   -591.59417    88.753674    84.155825    84.569811    591.59417 -0.025455001 
    3380    631665.15    100.01624   -646.01612    88.774968    84.125421    84.580284    646.01612 -0.025221185 
    3400    631400.88    99.966346   -627.04911    88.796263    84.101829    84.548335    627.04911 -0.024987369 
    3420     631639.1    100.54396   -593.12323    88.817557    84.128652    84.532995    593.12323 -0.024753553 
    3440    631904.28    100.12896   -465.36631    88.838851    84.121167    84.555736    465.36631 -0.024519737 
    3460    632262.95    100.34515   -501.43232    88.860145    84.147487       84.557    501.43232 -0.024285921 
    3480    632177.42    100.52201   -459.63201    88.881439    84.128008    84.544878    459.63201 -0.024052105 
    3500    632012.04     100.2929   -504.33658    88.902733     84.08385    84.546892    504.33658 -0.023818289 
    3520    632263.13    99.810821   -581.58082    88.924027    84.138609    84.505195    581.58082 -0.023584473 
    3540    632043.83    100.83858   -414.12425    88.945321    84.083137    84.511379    414.12425 -0.023350657 
    3560    632216.64    100.21597   -522.02627    88.966615    84.109028    84.488236    522.02627 -0.023116841 
    3580    632809.04    100.15572   -484.90401    88.987909    84.126228    84.529881    484.90401 -0.022883025 
    3600    633281.82    100.27668   -590.20349    89.009203    84.140141    84.558811    590.20349 -0.022649209 
    3620    633487.37    100.29546   -704.69381    89.030497    84.170187    84.535839    704.69381 -0.022415393 
    3640    633362.79     100.1903   -564.30338    89.051791    84.178385    84.490775    564.30338 -0.022181577 
    3660    633414.22     100.3413   -528.21327    89.073085    84.161181    84.494704    528.21327 -0.021947761 
    3680    633772.01    100.15694   -485.62576     89.09438    84.165005    84.518386    485.62576 -0.021713946 
    3700    633861.75    99.965462   -659.50694    89.115674    84.131638    84.543672    659.50694  -0.02148013 
    3720    633685.68     99.83401   -864.13921    89.136968    84.119788    84.511901    864.13921 -0.021246314 
    3740    633474.15    100.03708   -679.75234    89.158262    84.091827    84.491596    679.75234 -0.021012498 
    3760    633698.52    99.567241   -636.17981    89.179556    84.113995    84.479071    636.17981 -0.020778682 
    3780    633714.33    100.14671    -615.2718     89.20085    84.114139    84.460866     615.2718 -0.020544866 
    3800    633990.69    99.801643   -828.28486    89.222144    84.128702     84.46291    828.28486  -0.02031105 
    3820    634011.42    99.947494   -908.04884    89.243438    84.148576    84.425574    908.04884 -0.020077234 
    3840    634092.52    99.947625    -820.4666    89.264732    84.113395    84.451538     820.4666 -0.019843418 
    3860    634412.78    100.03596   -849.96353    89.286026    84.107076    84.480387    849.96353 -0.019609602 
    3880    634542.98    99.940365   -861.80853     89.30732     84.15799     84.42647    861.80853 -0.019375786 
    3900    634681.15    99.666054   -757.61391    89.328614     84.13416    84.448637    757.61391  -0.01914197 
    3920    634075.41    100.15446   -671.94151    89.349908    84.091617    84.390604    671.94151 -0.018908154 
    3940    634128.99    99.665791    -718.1083    89.371202    84.053749     84.41564     718.1083 -0.018674338 
    3960    634195.36    99.802713   -785.20031    89.392496    84.053425    84.404689    785.20031 -0.018440522 
    3980    633927.88    99.993962   -545.01711    89.413791    84.074537    84.327818    545.01711 -0.018206706 
    4000    634136.25    99.952219   -628.88976    89.435085    84.070819    84.339181    628.88976  -0.01797289 
    4020     634063.5    100.31115   -526.33212    89.456379    84.031721     84.34866    526.33212 -0.017739074 
    4040    633800.19    100.31823   -562.20907    89.477673    83.982458    84.343012    562.20907 -0.017505258 
    4060    634114.27    100.30604   -517.31292    89.498967    83.986116    84.361056    517.31292 -0.017271442 
    4080    634263.82    100.32516   -347.79521    89.520261    84.001703    84.345226    347.79521 -0.017037626 
    4100    634420.55    100.56598   -340.68221    89.541555    83.991741     84.35601    340.68221  -0.01680381 
    4120    634537.66    100.11536   -381.47151    89.562849    84.002669    84.340548    381.47151 -0.016569994 
    4140     634409.9    100.26909   -534.93944    89.584143    83.980477    84.325801    534.93944 -0.016336178 
    4160    634460.64    100.38379   -497.60889    89.605437    83.977829    84.315161    497.60889 -0.016102362 
    4180    634654.14     100.5003   -507.96091    89.626731    83.985688    84.312949    507.96091 -0.015868546 
    4200    634958.14    100.19893   -484.18208    89.648025    83.930158    84.389094    484.18208  -0.01563473 
    4220    635455.81    100.36052   -482.44543    89.669319    83.957889    84.407293    482.44543 -0.015400914 
    4240    635407.97    100.34204   -543.20556    89.690613    83.969367    84.369365    543.20556 -0.015167098 
    4260    635862.04    100.36414   -564.88602    89.711907    83.991209    84.387666    564.88602 -0.014933282 
    4280    635843.33    99.758037   -597.10578    89.733202     83.99156    84.364806    597.10578 -0.014699466 
    4300       635925     100.4231   -649.26409    89.754496    83.977066    84.370184    649.26409  -0.01446565 
    4320     636071.1    99.482863   -593.78055     89.77579    83.991508    84.355044    593.78055 -0.014231834 
    4340    636131.21      99.9964   -656.11213    89.797084    83.992172    84.342342    656.11213 -0.013998018 
    4360    636339.27    100.02908   -670.62567    89.818378    83.960284    84.381962    670.62567 -0.013764202 
    4380    636497.77    99.912817   -707.24514    89.839672    83.948891    84.394425    707.24514 -0.013530386 
    4400    636468.21    99.749652   -918.78129    89.860966    83.925894    84.393629    918.78129  -0.01329657 
    4420    636448.04    100.28828   -994.88541     89.88226    83.950994    84.345735    994.88541 -0.013062754 
    4440    636191.48    99.831421   -803.42066    89.903554    83.922103    84.320783    803.42066 -0.012828938 
    4460    636324.12    99.717456   -816.23146    89.924848    83.927152    84.313319    816.23146 -0.012595122 
    4480    636918.23    99.813975   -975.95858    89.946142    83.963961    84.335071    975.95858 -0.012361306 
    4500    637201.83    99.601623   -1028.8927    89.967436    83.947142    84.369554    1028.8927  -0.01212749 
    4520    637383.96    100.06433   -1039.9142     89.98873    83.950711    84.370112    1039.9142 -0.011893674 
    4540    637102.42    99.626684   -836.81184    90.010024    83.930387    84.333311    836.81184 -0.011659858 
    4560    637042.56    100.14698   -911.31291    90.031318    83.925598    84.310254    911.31291 -0.011426042 
    4580    637292.22    100.03762   -822.49586    90.052613    83.970365    84.278395    822.49586 -0.011192226 
    4600    636974.58    100.02076   -747.34889    90.073907    83.943163    84.243766    747.34889  -0.01095841 
    4620    636382.47    100.22957   -667.88962    90.095201    83.898504    84.190354    667.88962 -0.010724595 
    4640    636729.08    100.34577   -842.57113    90.116495    83.916742    84.198001    842.57113 -0.010490779 
    4660     636573.6    100.11733   -799.36014    90.137789    83.854155    84.220368    799.36014 -0.010256963 
    4680    636759.48    100.52072   -655.61962    90.159083    83.881648    84.197458    655.61962 -0.010023147 
    4700    636911.54    100.29943   -547.80925    90.180377    83.887051    84.192256    547.80925 -0.0097893306 
    4720    637334.36     100.3066   -679.70954    90.201671    83.886287    84.229026    679.70954 -0.0095555146 
    4740    637740.52    100.29802   -603.19419    90.222965    83.923533    84.225415    603.19419 -0.0093216986 
    4760    637690.18    100.43998   -700.35317    90.244259    83.866811     84.25584    700.35317 -0.0090878827 
    4780    638054.84    100.82432   -584.59107    90.265553    83.892942    84.257882    584.59107 -0.0088540667 
    4800    638375.33    100.50754   -434.64096    90.286847    83.875231    84.298118    434.64096 -0.0086202507 
    4820     638340.9    100.10245   -442.04743    90.308141    83.879101    84.269808    442.04743 -0.0083864347 
    4840     638355.1    100.36134   -410.08524    90.329435    83.886198    84.244688    410.08524 -0.0081526187 
    4860    638204.28    100.13435   -482.81281     90.35073    83.858469    84.232776    482.81281 -0.0079188028 
    4880    638195.99    99.747207   -540.74228    90.372024    83.844833    84.225531    540.74228 -0.0076849868 
    4900    638784.32    99.757776   -424.32167    90.393318    83.911744    84.216109    424.32167 -0.0074511708 
    4920    638552.01    100.17513   -450.59914    90.414612    83.889843    84.187629    450.59914 -0.0072173548 
    4940    638286.56    100.10149   -567.79847    90.435906    83.871578    84.151138    567.79847 -0.0069835389 
    4960    638281.11    99.846681   -515.84931      90.4572     83.85662    84.145616    515.84931 -0.0067497229 
    4980    638544.92    99.504115   -777.59999    90.478494    83.898028    84.119045    777.59999 -0.0065159069 
    5000    638438.81    100.15779   -689.30497    90.499788    83.870405    84.112972    689.30497 -0.0062820909 
    5020    638555.36    99.515364   -726.44245    90.521082    83.877429    84.101493    726.44245 -0.0060482749 
    5040    638297.37    99.786436   -668.72359    90.542376    83.840908    84.084354    668.72359 -0.005814459 
    5060    638393.38    99.958492   -721.56875     90.56367    83.846888    84.071232    721.56875 -0.005580643 
    5080    638605.35     99.91502   -826.01121    90.584964    83.817404    84.108953    826.01121 -0.005346827 
    5100    638504.77    99.667668    -769.0584    90.606258    83.811936    84.081428     769.0584 -0.005113011 
    5120    638649.16    100.25961   -733.33132    90.627552    83.800716    84.091938    733.33132 -0.004879195 
    5140    638858.31    99.771171   -865.90238    90.648846    83.813927    84.086462    865.90238 -0.0046453791 
    5160    638824.33    99.894134     -883.437    90.670141    83.780891    84.095389      883.437 -0.0044115631 
    5180    639198.31    99.995442   -998.05108    90.691435    83.821495    84.084113    998.05108 -0.0041777471 
    5200    638832.84    99.875647   -770.02286    90.712729    83.773453     84.06449    770.02286 -0.0039439311 
    5220    639218.18    100.18504   -689.07754    90.734023    83.790589    84.078259    689.07754 -0.0037101152 
    5240    639591.75    100.45087   -722.82508    90.755317    83.806898     84.09129    722.82508 -0.0034762992 
    5260    639298.24    100.24777   -765.84054    90.776611    83.750644    84.089426    765.84054 -0.0032424832 
    5280    640114.84    100.47008   -879.60997    90.797905    83.791632    84.135914    879.60997 -0.0030086672 
    5300    640202.51    100.33262   -789.18364    90.819199    83.787019    84.132339    789.18364 -0.0027748512 
    5320    640026.98    100.27026   -676.46717    90.840493    83.769704    84.106936    676.46717 -0.0025410353 
    5340    640482.69    100.13791   -696.99969    90.861787    83.802193    84.114475    696.99969 -0.0023072193 
    5360    640243.87    100.18683   -676.82281    90.883081    83.774373    84.091326    676.82281 -0.0020734033 
    5380    640582.86    100.37326   -827.17648    90.904375    83.795341    84.095093    827.17648 -0.0018395873 
    5400    641000.63    100.20099   -635.41058    90.925669    83.771125    84.154551    635.41058 -0.0016057713 
    5420    640598.77    100.24104    -551.6515    90.946963     83.75232    84.100978     551.6515 -0.0013719554 
    5440    640977.29    100.30825   -587.59791    90.968257    83.763306     84.11994    587.59791 -0.0011381394 
    5460    640815.07    100.35285   -581.63478    90.989552    83.737066    84.105316    581.63478 -0.00090432341 
    5480    641034.69    100.17606   -645.69003    91.010846    83.760451    84.090973    645.69003 -0.00067050743 
    5500    641370.15    100.19731   -562.53706     91.03214    83.736623    84.139234    562.53706 -0.00043669145 
    5520     641157.5    100.08264   -590.22182    91.053434    83.702076    84.126373    590.22182 -0.00020287547 
    5540    641055.05    99.867182    -550.1242    91.074728    83.697891    84.097469     550.1242 3.0940507e-05 
    5560    641405.08    99.791287   -645.02677    91.096022    83.693756    84.127876    645.02677 0.00026475649 
    5580    641304.27     100.1469    -594.4867    91.117316    83.714975    84.073681     594.4867 0.00049857246 
    5600    641800.38    99.407101   -752.59287     91.13861    83.729285    84.104685    752.59287 0.00073238844 
    5620    641634.35    100.03858   -734.86882    91.159904    83.714231    84.078403    734.86882 0.00096620442 
    5640    641823.04    100.21982   -742.58012    91.181198    83.731417    84.066229    742.58012 0.0012000204 
    5660    642041.46    99.688313    -678.7292    91.202492    83.701232    84.105523     678.7292 0.0014338364 
    5680    641584.61    99.900051   -737.61445    91.223786    83.648074    84.079458    737.61445 0.0016676524 
    5700    641894.08     99.99272   -666.40089     91.24508    83.698739    84.049473    666.40089 0.0019014683 
    5720    641497.01    99.813403   -713.10912    91.266374    83.626175    84.050753    713.10912 0.0021352843 
    5740    641422.55    99.921766   -713.87878    91.287668    83.624222    84.023355    713.87878 0.0023691003 
    5760    641928.64    99.754895   -645.49807    91.308963     83.64175    84.052423    645.49807 0.0026029163 
    5780    641770.45    99.843304   -784.00707    91.330257    83.638824    84.015057    784.00707 0.0028367323 
    5800    641705.34    100.07583   -722.51188    91.351551    83.644512    83.981239    722.51188 0.0030705482 
    5820    642014.32    99.748194   -851.88577    91.372845    83.640016    84.006611    851.88577 0.0033043642 
    5840    641602.69    100.22949   -774.02013    91.394139    83.613644    83.959661    774.02013 0.0035381802 
    5860    642025.27    100.55626   -839.42665    91.415433    83.630169    83.978793    839.42665 0.0037719962 
    5880    641974.69    100.31631   -635.82772    91.436727    83.615869    83.966979    635.82772 0.0040058121 
    5900    642534.02    100.79386   -910.88783    91.458021    83.642232    83.994088    910.88783 0.0042396281 
    5920    643044.52    100.45583    -808.5106    91.479315    83.668475    84.014894     808.5106 0.0044734441 
    5940    642863.86    100.71481   -760.32879    91.500609    83.631472    84.008898    760.32879 0.0047072601 
    5960    642974.76    100.68282   -528.68384    91.521903    83.611494    84.023912    528.68384 0.0049410761 
    5980    643311.18    100.20119    -790.5252    91.543197    83.634335    84.025366     790.5252  0.005174892 
    6000    643074.86    100.76533   -826.43687    91.564491    83.594056    84.015428    826.43687  0.005408708 
    6020    642828.94    100.42382   -874.91519    91.585785    83.582184      83.9757    874.91519  0.005642524 
    6040    642445.77    100.22299   -619.57224     91.60708    83.574382    83.913969    619.57224   0.00587634 
    6060    642715.53    100.16605   -679.14802    91.628374    83.544464     83.95975    679.14802  0.006110156 
    6080    642448.07    100.52199   -717.67521    91.649668    83.533016    83.916811    717.67521 0.0063439719 
    6100    642503.84    100.10169   -774.08563    91.670962    83.546663    83.890896    774.08563 0.0065777879 
    6120    642762.94    100.28585   -856.78695    91.692256    83.562338    83.889497    856.78695 0.0068116039 
    6140       642957    99.998506   -723.13601     91.71355    83.551268    83.906457    723.13601 0.0070454199 
    6160    643548.35    100.11335   -762.41171    91.734844    83.561565    83.953786    762.41171 0.0072792358 
    6180    643697.99    100.01307   -698.05609    91.756138    83.579557    83.935747    698.05609 0.0075130518 
    6200    643637.06    99.804163   -732.32324    91.777432    83.580706    83.907175    732.32324 0.0077468678 
    6220    643930.46    100.11642   -693.06442    91.798726    83.603889     83.90268    693.06442 0.0079806838 
    6240    643897.38    99.950586   -573.43386     91.82002    83.574119    83.908791    573.43386 0.0082144998 
    6260    644109.61    99.979355   -597.55287    91.841314    83.567794    83.923339    597.55287 0.0084483157 
    6280    644343.15    100.01704   -727.56905    91.862608    83.561479    83.940649    727.56905 0.0086821317 
    6300    644326.12    100.11752    -785.9663    91.883902    83.554364    83.926124     785.9663 0.0089159477 
    6320     644454.2    99.956963   -743.03859    91.905196    83.548541    83.929206    743.03859 0.0091497637 
    6340    644295.83    100.01722   -753.77311    91.926491     83.50627     83.93161    753.77311 0.0093835797 
    6360    644153.81    99.905686    -597.9909    91.947785    83.489761    83.910264     597.9909 0.0096173956 
    6380    644761.76    99.837111   -726.48436    91.969079    83.519009    83.940607    726.48436 0.0098512116 
    6400     644579.1    99.980732   -695.95583    91.990373    83.496746     83.91977    695.95583  0.010085028 
    6420    644645.53    99.689102   -742.49002    92.011667    83.505775    83.899923    742.49002  0.010318844 
    6440     644861.6    100.15448   -773.70434    92.032961    83.512228    83.902143    773.70434   0.01055266 
    6460    644464.01     99.57993   -537.87912    92.054255    83.463662    83.879796    537.87912  0.010786476 
    6480    645076.45    100.00457   -519.33492    92.075549    83.468745    83.934979    519.33492  0.011020292 
    6500    645155.95    99.921323    -715.7872    92.096843    83.469486    83.925169     715.7872  0.011254107 
    6520    645051.08    99.544234   -639.19381    92.118137    83.464408    83.897234    639.19381  0.011487923 
    6540    644799.42    99.795144   -651.77161    92.139431     83.41599    83.893788    651.77161  0.011721739 
    6560    644883.59    99.763985   -777.51622    92.160725    83.411251    83.890118    777.51622  0.011955555 
    6580    644958.27    99.146482   -653.67035    92.182019     83.40672    83.885009    653.67035  0.012189371 
    6600    645349.17     100.2127   -690.16701    92.203313    83.416448    83.906679    690.16701  0.012423187 
    6620    645461.54    99.786342   -755.05725    92.224607    83.401394    83.917058    755.05725  0.012657003 
    6640    645829.52    99.611441   -818.64451    92.245902    83.422064    83.924716    818.64451  0.012890819 
    6660    645693.37    99.944028   -875.31832    92.267196     83.41473    83.895034    875.31832  0.013124635 
    6680    645718.79     99.85013   -705.40362     92.28849    83.422885    83.870779    705.40362  0.013358451 
    6700    646063.19     99.63527   -669.50794    92.309784    83.464491    83.854334    669.50794  0.013592267 
    6720    645720.03    100.18324   -817.71629    92.331078    83.438674    83.816391    817.71629  0.013826083 
    6740    645736.41    100.25201   -840.24275    92.352372    83.428002     83.80991    840.24275  0.014059899 
    6760    646009.65    100.52294   -982.82192    92.373666    83.404886    83.849279    982.82192  0.014293715 
    6780    645896.86     100.7771   -867.76115     92.39496     83.37941    83.840927    867.76115  0.014527531 
    6800    646657.86    99.970029   -875.92555    92.416254    83.395756     83.90392    875.92555  0.014761347 
    6820    646664.61    100.50625   -778.37916    92.437548    83.392743    83.888498    778.37916  0.014995163 
    6840    646554.18    100.26618   -673.93956    92.458842    83.341671    83.906243    673.93956  0.015228979 
    6860    647318.36    100.43751   -838.18787    92.480136    83.383516    83.943923    838.18787  0.015462795 
    6880    647361.06    100.02632   -905.06357     92.50143    83.357293    83.956538    905.06357  0.015696611 
    6900    647392.57    99.606099   -794.31904    92.522724    83.373331    83.925153    794.31904  0.015930427 
    6920    647496.19    100.19079    -678.5057    92.544018    83.388848    83.903656     678.5057  0.016164243 
    6940    647526.79    100.06772    -696.4999    92.565313    83.365712    83.911601     696.4999  0.016398059 
    6960    647688.63    99.484127   -702.65392    92.586607    83.386802    83.892046    702.65392  0.016631875 
    6980    647703.58    100.24693   -870.59736    92.607901     83.40153     83.85988    870.59736  0.016865691 
    7000    647767.99    100.00623    -844.4368    92.629195    83.377964    83.872639     844.4368  0.017099507 
    7020    647815.89    100.16455   -653.91969    92.650489    83.387118    83.850357    653.91969  0.017333323 
    7040    647910.96    100.25649   -775.48034    92.671783     83.37195    83.858646    775.48034  0.017567139 
    7060    647834.15    99.782952   -715.93089    92.693077    83.397102     83.80416    715.93089  0.017800955 
    7080    647552.36    100.11112   -788.39294    92.714371    83.404895    83.740643    788.39294  0.018034771 
    7100     647209.9     99.82766   -744.98204    92.735665    83.360274    83.721929    744.98204  0.018268587 
    7120    647686.64     99.78689    -755.9093    92.756959    83.361891    83.762741     755.9093  0.018502403 
    7140    647812.89    100.03042   -757.89743    92.778253    83.339796    83.782046    757.89743  0.018736219 
    7160    647528.22    99.944577     -637.712    92.799547    83.301507    83.764497      637.712  0.018970035 
    7180    647742.22    99.881033    -692.2755    92.820841    83.318701    83.755669     692.2755  0.019203851 
    7200    647758.94    100.73222   -743.53508    92.842135    83.307011    83.750371    743.53508  0.019437667 
    7220    648010.14    100.02155   -706.73001     92.86343    83.328953    83.741581    706.73001  0.019671483 
    7240    648033.78    100.46537   -690.24209    92.884724    83.312723    83.741748    690.24209  0.019905299 
    7260    648045.35     99.85073   -666.76323    92.906018    83.276316    83.760652    666.76323  0.020139115 
    7280    648251.36     99.94915   -591.92285    92.927312    83.280184    83.764188    591.92285  0.020372931 
    7300    648762.89    99.875481   -767.66904    92.948606    83.270814    83.820513    767.66904  0.020606747 
    7320    648923.68    100.04894   -824.92777      92.9699    83.295422    83.797319    824.92777  0.020840563 
    7340    648994.38      99.5633   -829.19213    92.991194    83.291269    83.791436    829.19213  0.021074379 
    7360    649010.77    100.25697   -746.65755    93.012488    83.269502    83.796268    746.65755  0.021308195 
    7380    649128.97    99.691268   -756.80284    93.033782    83.262503    83.799389    756.80284  0.021542011 
    7400    649387.26    100.05154   -773.84143    93.055076    83.262753    83.813298    773.84143  0.021775827 
    7420    649221.59    100.43218   -962.86874     93.07637    83.244356     83.79126    962.86874  0.022009642 
    7440    648997.26    99.827076   -901.80764    93.097664    83.187854    83.800028    901.80764  0.022243458 
    7460    649002.37    100.13298   -776.44035    93.118958    83.157274    83.812334    776.44035  0.022477274 
    7480    648783.71    100.17933   -739.78069    93.140252    83.136741    83.785628    739.78069   0.02271109 
    7500    648768.44    99.670449   -844.85346    93.161546    83.135672    83.765583    844.85346  0.022944906 
    7520    648871.51    99.961347   -900.65502    93.182841    83.114241    83.781343    900.65502  0.023178722 
    7540    649142.78    99.714998   -881.17736    93.204135    83.143901    83.767326    881.17736  0.023412538 
    7560    649594.34    99.865146   -779.51256    93.225429    83.157533    83.792712    779.51256  0.023646354 
    7580    649769.31    99.994706   -857.25834    93.246723     83.20148    83.751881    857.25834   0.02388017 
    7600    649978.42    99.720387   -913.93987    93.268017     83.23514    83.725833    913.93987  0.024113986 
    7620    650248.06     99.10572   -999.79482    93.289311    83.262244    83.714188    999.79482  0.024347802 
    7640     650069.9    99.840318   -736.34668    93.310605    83.212759     83.72191    736.34668  0.024581618 
    7660    650263.25    99.296654   -800.96202    93.331899    83.215918    83.724526    800.96202  0.024815434 
    7680    650366.74    99.573367   -782.64955    93.353193    83.213859    83.720822    782.64955   0.02504925 
    7700    650363.68    99.126205   -811.25748    93.374487    83.167993    83.747496    811.25748  0.025283066 
    7720     650522.7    99.478345   -887.98648    93.395781    83.124722     83.79247    887.98648  0.025516882 
    7740    650372.58    99.597926   -865.44958    93.417075    83.093882    83.785123    865.44958  0.025750698 
    7760    649976.16    99.637826   -645.34421    93.438369    83.035623    83.773706    645.34421  0.025984514 
    7780    650406.96    100.03094   -705.15894    93.459663    83.068743    83.776715    705.15894   0.02621833 
    7800    650438.98    100.21482   -692.50042    93.480957    83.078032     83.75239    692.50042  0.026452146 
    7820    650512.68    99.578549   -732.11622    93.502252    83.073848    83.747022    732.11622  0.026685962 
    7840    650485.55    100.01566   -772.35196    93.523546    83.066631    83.731735    772.35196  0.026919778 
    7860    650725.06    100.29465   -581.51584     93.54484    83.095032    83.714875    581.51584  0.027153594 
    7880    650825.82    99.806549   -665.50507    93.566134    83.106141    83.697593    665.50507   0.02738741 
    7900     650854.3    100.26993   -533.57623    93.587428    83.103405    83.684967    533.57623  0.027621226 
    7920    651214.26    100.08173   -672.55035    93.608722    83.117195    83.698314    672.55035  0.027855042 
    7940    651309.35    100.24347   -702.92239    93.630016    83.084297    83.724635    702.92239  0.028088858 
    7960    651247.62    99.963156   -724.84493     93.65131    83.059798    83.722352    724.84493  0.028322674 
    7980    651308.69    100.32758   -663.00676    93.672604    83.020552    83.750741    663.00676   0.02855649 
    8000       651143    99.969202    -646.5837    93.693898    82.980454    83.750857     646.5837  0.028790306 
    8020    651173.91    100.35535   -693.68039    93.715192    82.998918    83.717174    693.68039  0.029024122 
    8040    651574.05    100.13956   -755.46101    93.736486    83.000064    83.748432    755.46101  0.029257938 
    8060    651462.43     100.2029   -770.45979     93.75778    83.001162     83.71396    770.45979  0.029491754 
    8080    651744.49    100.06626   -704.50375    93.779074    83.035739    83.696321    704.50375   0.02972557 
    8100    651855.43    99.969472   -816.11773    93.800368      83.0166    83.710859    816.11773  0.029959386 
    8120    651840.01    100.33313    -866.5622    93.821663    83.045731    83.660524     866.5622  0.030193202 
    8140     652058.5    99.687012    -884.1114    93.842957    83.038399    83.676964     884.1114  0.030427018 
    8160    652306.85    99.685654   -923.38257    93.864251      83.0351    83.693168    923.38257  0.030660834 
    8180    652418.78    99.576184    -916.5386    93.885545    83.063708    83.659721     916.5386   0.03089465 
    8200    652568.14    99.693633   -898.33768    93.906839    83.058246      83.6654    898.33768  0.031128466 
    8220    652445.17    99.875705   -957.22092    93.928133    83.044017       83.645    957.22092  0.031362282 
    8240    652558.73    99.788941   -970.96624    93.949427    83.036873    83.647792    970.96624  0.031596098 
    8260    652691.09    99.846312   -789.66233    93.970721    83.004584    83.678338    789.66233  0.031829914 
    8280    652509.22    99.643352   -868.89675    93.992015    82.961643     83.67936    868.89675   0.03206373 
    8300    652547.49    100.25639    -812.8941    94.013309    82.953934    83.673088     812.8941  0.032297546 
    8320    652449.99    99.857976    -810.0927    94.034603    82.951567    83.644028     810.0927  0.032531362 
    8340    652288.01    99.972869   -704.55409    94.055897    82.945107     83.61084    704.55409  0.032765178 
    8360    652608.49     99.67579   -709.68522    94.077191    82.988732    83.589022    709.68522  0.032998993 
    8380    652692.57    100.19879   -644.80082    94.098485    82.981587     83.58807    644.80082  0.033232809 
    8400    652603.38    99.868518   -802.64274     94.11978    82.959634    83.579851    802.64274  0.033466625 
    8420    652359.58     100.0409   -691.47558    94.141074    82.926095    83.563512    691.47558  0.033700441 
    8440    652567.37    99.973046    -694.4291    94.162368    82.901769    83.595747     694.4291  0.033934257 
    8460    652413.36    100.19824   -653.34372    94.183662    82.898803    83.560112    653.34372  0.034168073 
    8480    652458.22    99.818425   -649.40496    94.204956     82.91631    83.529329    649.40496  0.034401889 
    8500    652889.86    100.26264   -775.08227     94.22625    82.942953    83.538856    775.08227  0.034635705 
    8520     653040.7    100.17492   -795.63483    94.247544    82.947126    83.535074    795.63483  0.034869521 
    8540    652951.64    100.01654   -736.86643    94.268838    82.914873    83.537297    736.86643  0.035103337 
    8560    653081.66    100.51522   -703.23301    94.290132    82.906302    83.543699    703.23301  0.035337153 
    8580    653134.41    100.39648   -821.36807    94.311426     82.93597    83.501702    821.36807  0.035570969 
    8600    653166.32    100.34092   -613.67347     94.33272     82.92745    83.495509    613.67347  0.035804785 
    8620    653820.43    100.23172   -899.39929    94.354014    83.004721    83.482474    899.39929  0.036038601 
    8640    653438.51    100.37695   -832.30635    94.375308    82.971854    83.447925    832.30635  0.036272417 
    8660    653665.63    100.38588   -721.89031    94.396602    82.959415    83.470614    721.89031  0.036506233 
    8680    653816.07    100.48463   -706.53514    94.417896    82.951521    83.478938    706.53514  0.036740049 
    8700    653717.52    99.627952   -751.74158    94.439191     82.93049    83.468698    751.74158  0.036973865 
    8720    653667.99    100.36258   -861.81904    94.460485    82.898008    83.476255    861.81904  0.037207681 
    8740    653557.77    99.966752   -854.98597    94.481779    82.859599    83.482048    854.98597  0.037441497 
    8760    653544.43    99.929822   -782.37581    94.503073    82.822018    83.499405    782.37581  0.037675313 
    8780    653482.31    99.903239   -750.73963    94.524367     82.80036    83.494493    750.73963  0.037909129 
    8800    653293.62    99.518483    -766.9878    94.545661    82.732693    83.519839     766.9878  0.038142945 
    8820    653441.53    99.896974   -852.16656    94.566955    82.747194    83.505303    852.16656  0.038376761 
    8840    653337.62    99.921439   -711.52483    94.588249    82.718029    83.502659    711.52483  0.038610577 
    8860    653291.67    99.771351   -666.41562    94.609543    82.722392     83.47359    666.41562  0.038844393 
    8880    653463.69    99.668253   -740.52383    94.630837    82.715795    83.483439    740.52383  0.039078209 
    8900    653279.22    100.08553     -700.035    94.652131    82.710993     83.44594      700.035  0.039312025 
    8920    653566.53    99.522174    -666.3287    94.673425    82.753268    83.421224     666.3287  0.039545841 
    8940    653920.95    100.14597   -687.48494    94.694719    82.780399    83.420345    687.48494  0.039779657 
    8960     653593.8    99.892609   -597.88602    94.716013     82.76514    83.375233    597.88602  0.040013473 
    8980    653472.56    100.05174   -471.80527    94.737307    82.782807    83.323245    471.80527  0.040247289 
    9000    653495.92    100.17186   -569.84715    94.758602    82.743955    83.346613    569.84715  0.040481105 
    9020    653861.32    100.33878   -451.82418    94.779896    82.767248    83.351017    451.82418  0.040714921 
    9040    654267.37    100.06701   -408.52227     94.80119    82.795078    83.356018    408.52227  0.040948737 
    9060    653950.95    100.11074   -421.93763    94.822484     82.76367    83.328605    421.93763  0.041182553 
    9080    654277.59    100.10049   -550.66259    94.843778    82.762901    83.352282    550.66259  0.041416369 
    9100    654610.17     100.4078   -506.69708    94.865072    82.771472    83.367299    506.69708  0.041650185 
    9120    654862.19    100.13332    -542.2348    94.886366    82.774751    83.377375     542.2348  0.041884001 
    9140    654970.94    100.23637   -513.35587     94.90766    82.795066    83.352055    513.35587  0.042117817 
    9160    655179.07    100.37261   -762.31563    94.928954    82.784752    83.370224    762.31563  0.042351633 
    9180    655314.18    100.49649   -622.27005    94.950248     82.79498    83.358416    622.27005  0.042585449 
    9200    655264.19    100.52915   -654.13424    94.971542    82.775857    83.352621    654.13424  0.042819265 
    9220    655044.12     100.4193   -755.31683    94.992836    82.777186    83.304611    755.31683  0.043053081 
    9240    654924.94    99.919373   -803.09179     95.01413    82.750898    83.297241    803.09179  0.043286897 
    9260    654997.22    99.853656   -768.54976    95.035424    82.728817    83.309998    768.54976  0.043520713 
    9280    655012.02    100.06552   -726.37227    95.056718    82.721139    83.300948    726.37227  0.043754529 
    9300    655107.46    99.683379   -803.85482    95.078013    82.720381     83.29519    803.85482  0.043988344 
    9320    655035.43    100.12217   -856.17029    95.099307     82.72948    83.258224    856.17029   0.04422216 
    9340    655274.92     99.89259   -766.58471    95.120601    82.718268    83.281307    766.58471  0.044455976 
    9360    655043.11    99.809282   -649.13445    95.141895    82.680917    83.270814    649.13445  0.044689792 
    9380    654999.49    99.854101   -721.70063    95.163189    82.685356    83.242167    721.70063  0.044923608 
    9400    655137.42    99.612157   -774.52311    95.184483    82.705704     83.22059    774.52311  0.045157424 
    9420     655358.2    99.676228   -839.89643    95.205777    82.717142    83.218506    839.89643   0.04539124 
    9440    655562.46    99.745483   -668.34763    95.227071    82.732746    83.210132    668.34763  0.045625056 
    9460    655802.06     99.78958   -716.55298    95.248365    82.714292    83.240502    716.55298  0.045858872 
    9480    655802.37    99.703446   -611.60384    95.269659     82.73927    83.196813    611.60384  0.046092688 
    9500    656128.06    100.22437   -789.90172    95.290953    82.742547    83.216233    789.90172  0.046326504 
    9520    656022.06    99.812352    -806.9411    95.312247      82.7663    83.160328     806.9411   0.04656032 
    9540    656424.81    99.838313   -724.10229    95.333541     82.79134    83.167634    724.10229  0.046794136 
    9560    656701.51     100.5039   -604.48934    95.354835    82.783247    83.192243    604.48934  0.047027952 
    9580    656569.06    99.935615   -573.88961    95.376129    82.763581    83.176654    573.88961  0.047261768 
    9600    656726.02    100.76073   -720.18711    95.397424    82.783392    83.158062    720.18711  0.047495584 
    9620    656510.82    100.06468   -686.00212    95.418718    82.747206    83.148606    686.00212    0.0477294 
    9640    656682.42    100.49977   -699.91526    95.440012    82.740823    83.158199    699.91526  0.047963216 
    9660    656798.86    100.56501   -590.75386    95.461306    82.741244    83.153967    590.75386  0.048197032 
    9680    656944.47    100.80954   -630.64873      95.4826    82.732268    83.162875    630.64873  0.048430848 
    9700    656843.51    100.06939   -630.59967    95.503894    82.697718    83.166286    630.59967  0.048664664 
    9720    656948.76    100.54805   -554.01484    95.525188    82.724607     83.13404    554.01484   0.04889848 
    9740    657354.01    100.45112    -673.6544    95.546482    82.737618    83.153704     673.6544  0.049132296 
    9760    657773.38    100.54344   -835.48984    95.567776    82.769819     83.15585    835.48984  0.049366112 
    9780    657380.47    100.47266    -581.5583     95.58907    82.754889    83.102655     581.5583  0.049599928 
    9800    657774.09    100.51767   -593.88643    95.610364    82.770215    83.118501    593.88643  0.049833744 
    9820    657862.33    100.39022   -662.84035    95.631658    82.769591    83.111769    662.84035   0.05006756 
    9840    657844.24    100.52258    -730.5035    95.652952    82.767309    83.093272     730.5035  0.050301376 
    9860    657961.66    100.07649   -819.08833    95.674246    82.784525    83.072327    819.08833  0.050535192 
    9880    657819.78    100.34253   -786.21555    95.695541    82.766874    83.053641    786.21555  0.050769008 
    9900    658238.57    99.691408   -773.33986    95.716835    82.730122    83.124938    773.33986  0.051002824 
    9920    658416.16     100.2067   -727.87601    95.738129    82.710594    83.148498    727.87601   0.05123664 
    9940    658338.26     100.3934   -709.86957    95.759423    82.715504    83.115239    709.86957  0.051470456 
    9960     658687.8    99.589715   -758.24365    95.780717    82.721056      83.1353    758.24365  0.051704272 
    9980    658746.29    99.971993   -840.76438    95.802011    82.739991    83.105179    840.76438  0.051938088 
   10000    658772.49     100.1173   -790.69693    95.823305     82.72506    83.105012    790.69693  0.052171904 
   10020    658644.69    100.20804   -660.51229    95.844599    82.735252    83.060197    660.51229   0.05240572 
   10040    658672.16    99.832448   -690.90912    95.865893    82.716678    83.063859    690.90912  0.052639536 
   10060    658729.51    100.01293   -827.48743    95.887187    82.675503    83.094005    827.48743  0.052873352 
   10080    658941.37    99.745425   -813.52251    95.908481    82.695929    83.081749    813.52251  0.053107168 
   10100    659145.54    100.17243   -960.25472    95.929775    82.698517    83.086443    960.25472  0.053340984 
   10120    659319.65    99.682541   -1117.3586    95.951069    82.709705    83.078706    1117.3586    0.0535748 
   10140    659144.91    100.02953   -866.21137    95.972363     82.68987    83.058179    866.21137  0.053808616 
   10160    659018.46    99.619275    -824.2642    95.993657    82.653019     83.06084     824.2642  0.054042432 
   10180    659402.16     99.69933   -801.22235    96.014952    82.652136    83.091656    801.22235  0.054276248 
   10200    659552.67    99.488228   -1002.1309    96.036246    82.643683    83.100693    1002.1309  0.054510064 
   10220    659539.08    100.02678    -934.9137     96.05754    82.651887    83.072312     934.9137   0.05474388 
   10240     659305.2    99.605183   -712.57804    96.078834    82.603265    83.073319    712.57804  0.054977695 
   10260    659415.45    99.910759   -753.32256    96.100128    82.612891    83.059121    753.32256  0.055211511 
   10280    659474.24    100.28374   -771.90276    96.121422    82.635414    83.025489    771.90276  0.055445327 
   10300    659743.83    100.02026   -797.07667    96.142716    82.603409    83.073208    797.07667  0.055679143 
   10320    659762.71    100.43907   -892.57869     96.16401     82.61939    83.041123    892.57869  0.055912959 
   10340    660023.32    100.32016   -838.87973    96.185304    82.641918    83.032893    838.87973  0.056146775 
   10360    660148.04    100.43031   -634.55761    96.206598    82.627171     83.04502    634.55761  0.056380591 
   10380    660072.01    100.32952   -721.94149    96.227892    82.619283    83.025007    721.94149  0.056614407 
   10400     660407.5    100.44676   -716.51882    96.249186    82.624334    83.043751    716.51882  0.056848223 
   10420    660513.07    100.40119   -903.81352     96.27048    82.628394    83.034575    903.81352  0.057082039 
   10440    660804.25    100.24307   -670.40185    96.291774    82.625333    83.055886    670.40185  0.057315855 
   10460    660848.32    100.63222   -658.47424    96.313068     82.60836    83.060123    658.47424  0.057549671 
   10480     660922.8    100.15031   -583.16814    96.334363    82.589217    83.070372    583.16814  0.057783487 
   10500    661288.34    100.12862   -745.69104    96.355657    82.577171     83.11007    745.69104  0.058017303 
   10520    661399.59    100.14132   -502.15718    96.376951    82.612818    83.069827    502.15718  0.058251119 
   10540     662043.7    100.16077    -764.2082    96.398245    82.669093    83.075766     764.2082  0.058484935 
   10560    661906.99    99.602936   -517.01924    96.419539    82.610296    83.099371    517.01924  0.058718751 
   10580     662099.6    100.39907   -553.22658    96.440833     82.60011    83.115447    553.22658  0.058952567 
   10600    662143.08    100.14407   -612.77198    96.462127    82.579727     83.12307    612.77198  0.059186383 
   10620    661918.68    99.900216   -611.00117    96.483421    82.583378    83.072887    611.00117  0.059420199 
   10640    661949.48    99.823497   -811.60208    96.504715    82.556424    83.085538    811.60208  0.059654015 
   10660    662177.67    99.527162   -645.96406    96.526009    82.563758    83.088464    645.96406  0.059887831 
   10680    662367.46     100.1999   -701.31216    96.547303    82.576472    83.081154    701.31216  0.060121647 
   10700    662238.55    100.15192   -709.72554    96.568597    82.543176    83.080167    709.72554  0.060355463 
   10720    661789.75    99.918626   -726.15054    96.589891     82.49606    83.052967    726.15054  0.060589279 
   10740    662383.68    100.10589   -790.96357    96.611185     82.55076    83.054112    790.96357  0.060823095 
   10760    662447.63    100.12336   -830.91497    96.632479    82.522253    83.072514    830.91497  0.061056911 
   10780    661963.16    99.922065   -763.76718    96.653774    82.522071    82.993655    763.76718  0.061290727 
   10800     662192.6    99.946497   -825.94583    96.675068    82.516809    83.009427    825.94583  0.061524543 
   10820    661997.85    100.11726   -763.34481    96.696362    82.490196    82.993505    763.34481  0.061758359 
   10840    662282.98    99.945441   -839.66951    96.717656    82.472651    83.028631    839.66951  0.061992175 
   10860    662495.87    99.963019   -900.13137     96.73895    82.477907    83.031748    900.13137  0.062225991 
   10880    662202.05    100.17326   -783.90949    96.760244    82.443828    83.010957    783.90949  0.062459807 
   10900    662732.63    100.18945   -830.12644    96.781538    82.484995    83.017735    830.12644  0.062693623 
   10920    663014.31    99.606256   -580.08686    96.802832    82.497485    83.022179    580.08686  0.062927439 
   10940    662653.02     99.94813   -784.85999    96.824126    82.511606    82.944492    784.85999  0.063161255 
   10960     662862.5     100.0667   -765.94125     96.84542    82.503894    82.960224    765.94125  0.063395071 
   10980    662853.27    99.812275   -799.18212    96.866714     82.49471    82.950066    799.18212  0.063628887 
   11000    662888.32    99.869871   -710.66001    96.888008    82.487796    82.943171    710.66001  0.063862703 
   11020    662920.97    100.05465   -586.30008    96.909302    82.471103    82.945817    586.30008  0.064096519 
   11040    662523.76    99.544846   -642.56148    96.930596    82.459343    82.889726    642.56148  0.064330335 
   11060    662591.93    99.689547   -620.08668    96.951891    82.430997    82.908547    620.08668  0.064564151 
   11080    662527.93    99.578183    -660.8173    96.973185    82.453859    82.859354     660.8173  0.064797967 
   11100    662539.16    99.227183   -632.81327    96.994479    82.440085    82.856408    632.81327  0.065031783 
   11120    662999.04    99.601288   -603.02249    97.015773      82.4374    82.898423    603.02249  0.065265599 
   11140    663045.87    99.719359   -628.94833    97.037067    82.446402    82.877035    628.94833  0.065499415 
   11160    662811.19    99.533735   -684.45601    97.058361    82.405398     82.87074    684.45601   0.06573323 
   11180    662737.23    99.789174   -658.98099    97.079655    82.400023    82.848722    658.98099  0.065967046 
   11200    662811.84     100.2515   -661.23299    97.100949    82.404418    82.835459    661.23299  0.066200862 
   11220    662912.91     100.2709   -581.71818    97.122243    82.399938     82.83443    581.71818  0.066434678 
   11240    663102.11     99.92801   -750.05775    97.143537    82.427018    82.812693    750.05775  0.066668494 
   11260     663230.8    99.838614   -820.70583    97.164831    82.413539    82.824156    820.70583   0.06690231 
   11280    663668.47    100.03132   -824.63102    97.186125    82.430621    82.843483    824.63102  0.067136126 
   11300    663704.06    99.718836   -748.29273    97.207419    82.430298    82.830101    748.29273  0.067369942 
   11320    664054.54    100.00818   -755.68178    97.228713    82.450388    82.835502    755.68178  0.067603758 
   11340    664339.17    100.13692   -888.79623    97.250007    82.447885    82.855377    888.79623  0.067837574 
   11360    664458.77    100.20682   -699.76403    97.271302    82.442376    82.857688    699.76403   0.06807139 
   11380     664703.5    100.43741    -704.0183    97.292596    82.456827     82.85554     704.0183  0.068305206 
   11400    664682.05    99.920801   -877.17391     97.31389    82.436257    82.855408    877.17391  0.068539022 
   11420    664713.34    99.923113   -913.97451    97.335184    82.422173    82.855335    913.97451  0.068772838 
   11440    664593.64    100.38482   -686.41863    97.356478    82.421597    82.822875    686.41863  0.069006654 
   11460    665012.16    99.794552   -750.64716    97.377772    82.456356    82.821981    750.64716   0.06924047 
   11480    665143.64    100.16774    -731.4424    97.399066     82.43529     82.84141     731.4424  0.069474286 
   11500    665100.74    100.10296   -793.85376     97.42036    82.444201     82.80901    793.85376  0.069708102 
   11520    664858.29    99.962598   -776.60996    97.441654    82.386334    82.818863    776.60996  0.069941918 
   11540    665301.35    99.994803   -800.55743    97.462948    82.396505    82.845719    800.55743  0.070175734 
   11560       665552     99.76453   -713.18383    97.484242    82.401839    82.853464    713.18383   0.07040955 
   11580    665526.25    100.00052   -616.32483    97.505536    82.357515    82.876744    616.32483  0.070643366 
   11600    665657.52    99.685117   -781.61441     97.52683    82.344761    82.887829    781.61441  0.070877182 
   11620    665658.96    99.840374   -789.28151    97.548124    82.333357    82.881392    789.28151  0.071110998 
   11640    666016.51    99.718925   -856.24771    97.569418    82.336017    82.905134    856.24771  0.071344814 
   11660     665842.4     99.79125   -572.79523    97.590713    82.290069    82.911645    572.79523   0.07157863 
   11680    665555.67    99.652163   -498.70431    97.612007    82.252249     82.89596    498.70431  0.071812446 
   11700    665762.57    99.968621   -612.46896    97.633301     82.26001    82.895823    612.46896  0.072046262 
   11720       666159    99.574176   -844.63366    97.654595    82.299723     82.88708    844.63366  0.072280078 
   11740    666110.52    99.815178   -658.10513    97.675889    82.312295    82.850323    658.10513  0.072513894 
   11760    666051.38    99.221467   -665.28661    97.697183    82.292172    82.845165    665.28661   0.07274771 
   11780    665906.23    100.04883   -620.20159    97.718477    82.251175    82.850337    620.20159  0.072981526 
   11800    666365.15    99.489834   -764.74796    97.739771    82.257997    82.882497    764.74796  0.073215342 
   11820     666143.4    100.15313   -781.73095    97.761065    82.220283    82.874865    781.73095  0.073449158 
   11840    666293.17    99.777023   -754.51466    97.782359    82.227939    82.867731    754.51466  0.073682974 
   11860    666511.73    99.847352    -689.6307    97.803653    82.229695    82.875096     689.6307   0.07391679 
   11880    666354.97    100.22571    -755.4968    97.824947    82.229537    82.837727     755.4968  0.074150606 
   11900    666772.49    99.912299   -752.21417    97.846241    82.235707    82.865373    752.21417  0.074384422 
   11920    667296.45     99.78415   -898.27657    97.867535    82.255402    82.892594    898.27657  0.074618238 
   11940    666893.43    100.64595   -636.62544    97.888829    82.228836    82.851269    636.62544  0.074852054 
   11960    667181.97    99.573056   -707.50691    97.910124    82.235458    82.862415    707.50691   0.07508587 
   11980    667286.43    100.25672   -757.47976    97.931418    82.165756    82.927657    757.47976  0.075319686 
   12000    666737.86    99.950979   -813.09596    97.952712    82.105988    82.901774    813.09596  0.075553502 
   12020    667358.82    99.988289   -826.35875    97.974006    82.111305    82.955576    826.35875  0.075787318 
   12040    667309.11    100.47089   -723.18737      97.9953    82.109737    82.932956    723.18737  0.076021134 
   12060    667516.78    99.942642    -727.3232    98.016594    82.118139    82.932257     727.3232   0.07625495 
   12080    667801.24    100.17505   -722.25994    98.037888    82.091992    82.975997    722.25994  0.076488766 
   12100    667401.35    100.40666   -754.52636    98.059182    82.076574    82.923876    754.52636  0.076722581 
   12120    668086.62    100.24758   -867.35797    98.080476    82.103784    82.963494    867.35797  0.076956397 
   12140    668163.85    99.787815   -659.80518     98.10177    82.104093    82.954762    659.80518  0.077190213 
   12160    667884.68    99.787924   -651.85715    98.123064    82.103177    82.903032    651.85715  0.077424029 
   12180    667879.64    99.698609   -654.42221    98.144358    82.098107    82.889538    654.42221  0.077657845 
   12200       667913    99.963469   -714.72367    98.165652    82.108951    82.864752    714.72367  0.077891661 
   12220    667615.67    99.937034   -701.64392    98.186946    82.103834    82.815061    701.64392  0.078125477 
   12240    668091.82    99.402687   -596.56791    98.208241    82.091476     82.86863    596.56791  0.078359293 
   12260    668119.82    100.25167    -609.0013    98.229535    82.089312    82.856322     609.0013  0.078593109 
   12280    668301.22    99.713333   -613.36784    98.250829    82.159711    82.789857    613.36784  0.078826925 
   12300    668721.43    99.853382   -660.21742    98.272123    82.173431    82.810133    660.21742  0.079060741 
   12320    668788.13     99.95779   -896.88706    98.293417    82.166957    82.806976    896.88706  0.079294557 
   12340    669153.94    99.466899   -742.11933    98.314711    82.167159     82.83412    742.11933  0.079528373 
   12360    668915.78    99.692841   -628.82555    98.336005    82.139552    82.814532    628.82555  0.079762189 
   12380    668927.09    99.846043   -662.60914    98.357299    82.122576    82.815118    662.60914  0.079996005 
   12400    668826.83    99.697195   -699.96299    98.378593    82.089471    82.818169    699.96299  0.080229821 
   12420    669073.93    100.09624   -835.50557    98.399887    82.118245    82.801814    835.50557  0.080463637 
   12440    669177.93    100.11585   -785.58369    98.421181    82.100924    82.814234    785.58369  0.080697453 
   12460    669357.99    100.06861   -786.83603    98.442475    82.080585    82.839121    786.83603  0.080931269 
   12480    669401.28    100.16657   -753.46162    98.463769    82.107102    82.799813    753.46162  0.081165085 
   12500    669692.35     100.3931   -820.29086    98.485063    82.108638    82.816357    820.29086  0.081398901 
   12520    669764.72    100.26238   -927.34598    98.506357    82.118426    82.797531    927.34598  0.081632717 
   12540    669948.27    100.25869   -945.57391    98.527652    82.118776    82.801971    945.57391  0.081866533 
   12560    670221.48    100.46129   -999.45948    98.548946    82.110877    82.825806    999.45948  0.082100349 
   12580    669963.99    100.50726   -905.11299     98.57024    82.128144    82.758697    905.11299  0.082334165 
   12600    669883.41    100.37921   -823.08142    98.591534    82.099227     82.76001    823.08142  0.082567981 
   12620    669920.19    100.51793   -931.20858    98.612828    82.106521    82.739331    931.20858  0.082801797 
   12640    669817.87    100.34758   -811.62563    98.634122    82.123695    82.691537    811.62563  0.083035613 
   12660    670106.99    100.43688    -849.2957    98.655416    82.099861    82.733385     849.2957  0.083269429 
   12680    670082.03    100.49669   -815.64006     98.67671     82.08612    82.726297    815.64006  0.083503245 
   12700    670063.16    100.47195    -669.7311    98.698004    82.094424    82.697754     669.7311  0.083737061 
   12720    670223.07    100.31147   -636.40436    98.719298    82.065232    82.729064    636.40436  0.083970877 
   12740    670025.85    99.917002   -613.46849    98.740592    82.019889    82.732596    613.46849  0.084204693 
   12760    669777.21    100.19729   -645.32154    98.761886    81.958329    82.746169    645.32154  0.084438509 
   12780    669550.47    100.09625   -669.12862     98.78318    81.951433    82.707284    669.12862  0.084672325 
   12800    669625.42    99.576292   -492.08885    98.804474    81.952757     82.69738    492.08885  0.084906141 
   12820    670162.33    99.886175   -531.38866    98.825768     81.95644    82.742137    531.38866  0.085139957 
   12840    670421.54     99.91362   -667.12812    98.847063    81.987347    82.725111    667.12812  0.085373773 
   12860    670466.14    100.39424   -785.25743    98.868357    81.980168    82.720039    785.25743  0.085607589 
   12880    670717.45    99.907261   -650.56235    98.889651    81.993785    82.719487    650.56235  0.085841405 
   12900    670557.29     99.88033   -484.14227    98.910945    81.942453    82.733724    484.14227  0.086075221 
   12920    670303.18    100.08493   -508.40767    98.932239    81.915753    82.711522    508.40767  0.086309037 
   12940    670802.93    100.03254   -713.65958    98.953533    81.918962    82.752134    713.65958  0.086542853 
   12960    671301.78    99.676554   -745.55551    98.974827    81.917376    82.797459    745.55551  0.086776669 
   12980    671429.34    99.880475    -668.0114    98.996121    81.923762    82.788926     668.0114  0.087010485 
   13000    671510.33    99.791335   -624.19806    99.017415     81.90276    82.802333    624.19806  0.087244301 
   13020     671290.8    100.01552   -688.10028    99.038709    81.850826    82.809975    688.10028  0.087478117 
   13040    671430.08    100.32501   -864.58322    99.060003    81.857185    82.802919    864.58322  0.087711932 
[...]
   76740    1105929.4    99.316255    28.525808    166.88161    81.012293    81.802767   -28.525808   0.83241582 
   76760    1106545.3    99.815078  -0.98399997     166.9029    81.008721    81.841492   0.98399997   0.83264964 
   76780    1107313.2    99.727615    -18.62388     166.9242    81.034722    81.861561     18.62388   0.83288346 
   76800    1107733.2    99.574578    63.631222    166.94549    81.052366    81.864341   -63.631222   0.83311727 
   76820    1107709.5     99.99922    86.550613    166.96679    81.065659    81.838726   -86.550613   0.83335109 
   76840    1108156.9    100.35545    117.16621    166.98808    81.107013    81.819605   -117.16621    0.8335849 
   76860    1108493.4    99.687729    71.981897    167.00937    81.122198    81.818693   -71.981897   0.83381872 
   76880      1108740    100.30793    74.779899    167.03067    81.119332    81.829355   -74.779899   0.83405254 
   76900    1109172.4    99.645187   -24.787147    167.05196    81.107212    81.863066    24.787147   0.83428635 
   76920      1108851    99.738064    110.22357    167.07326    81.130318    81.805609   -110.22357   0.83452017 
   76940    1109294.1    100.08239   -75.867967    167.09455    81.131164    81.827014    75.867967   0.83475398 
   76960    1109259.2    100.04501    10.158799    167.11584     81.09887    81.846596   -10.158799    0.8349878 
   76980    1108882.2    99.801018   -54.474458    167.13714    81.098785    81.808439    54.474458   0.83522162 
   77000    1109139.7    100.23685   -60.800803    167.15843    81.117869    81.797762    60.800803   0.83545543 
   77020    1109529.8    100.24444   -90.179706    167.17973     81.15382    81.779867    90.179706   0.83568925 
   77040    1109787.4    99.769105   -97.377077    167.20102    81.177925    81.764147    97.377077   0.83592306 
   77060      1109912    100.02197   -157.68333    167.22231    81.163089    81.777864    157.68333   0.83615688 
   77080    1109321.8     100.0191   -236.45141    167.24361    81.157457    81.729641    236.45141    0.8363907 
   77100    1108677.6    100.27009   -220.94852     167.2649    81.124876    81.704579    220.94852   0.83662451 
   77120    1108280.1    100.07295    -215.4055     167.2862    81.098772    81.691174     215.4055   0.83685833 
   77140    1107947.7    100.39937   -187.45868    167.30749    81.076846    81.678361    187.45868   0.83709214 
   77160      1107895    100.42928   -259.27676    167.32878    81.070817    81.670161    259.27676   0.83732596 
   77180    1108073.4    100.19938   -268.98912    167.35008    81.059308    81.684511    268.98912   0.83755978 
   77200    1108195.1    100.61125   -209.37786    167.37137    81.046086    81.696412    209.37786   0.83779359 
   77220    1108663.9     99.83273   -182.85278    167.39267    81.042342    81.724353    182.85278   0.83802741 
   77240    1108991.5    100.52111   -212.48304    167.41396    81.015708    81.764979    212.48304   0.83826122 
   77260      1109293    100.15315    -179.7306    167.43525    81.037199    81.755118     179.7306   0.83849504 
   77280    1110118.7    99.832214   -231.36361    167.45655    81.054225    81.788381    231.36361   0.83872886 
   77300    1110156.9      99.8792   -64.054089    167.47784    81.021428    81.813899    64.054089   0.83896267 
   77320    1110588.7    100.22244    -105.1545    167.49914    81.056718     81.79969     105.1545   0.83919649 
   77340    1110492.4    99.824331   -122.89669    167.52043    81.062281    81.776592    122.89669    0.8394303 
   77360    1110547.6    100.04756    -69.78633    167.54173    81.036433    81.796343     69.78633   0.83966412 
   77380    1110739.9    99.859753    -93.36568    167.56302    81.021392    81.815297     93.36568   0.83989794 
   77400    1110404.3    99.423364    19.141046    167.58431    80.976191     81.82583   -19.141046   0.84013175 
   77420    1110700.6    99.839293   -105.60694    167.60561    81.019739    81.793282    105.60694   0.84036557 
   77440    1110749.3     99.80496   -68.778995     167.6269    81.028073    81.778065    68.778995   0.84059938 
   77460    1111039.3    99.764424   -23.762331     167.6482    81.017032    81.800169    23.762331    0.8408332 
   77480    1111206.9    100.19445    7.3737804    167.66949    81.050758    81.768079   -7.3737804   0.84106702 
   77500    1111060.2    100.22172    23.330606    167.69078    81.033331    81.764483   -23.330606   0.84130083 
   77520    1112109.2    100.14759   -97.670909    167.71208    81.074298    81.789939    97.670909   0.84153465 
   77540      1112565    100.06451   -87.783779    167.73337    81.074736    81.812636    87.783779   0.84176846 
   77560    1112632.1    100.04446   -4.5719942    167.75467    81.056679    81.825409    4.5719942   0.84200228 
   77580    1113190.5    99.737052   -51.847667    167.77596    81.072573    81.840034    51.847667    0.8422361 
   77600    1113001.4     100.3483   -53.958818    167.79725    81.065448    81.822941    53.958818   0.84246991 
   77620    1113138.2    99.724352   -77.843865    167.81855    81.099567    81.788186    77.843865   0.84270373 
   77640    1113169.5    100.62948   -125.77491    167.83984     81.07814    81.801723    125.77491   0.84293754 
   77660    1112193.7     100.1614   -51.076718    167.86114    81.011759     81.78661    51.076718   0.84317136 
   77680    1112508.5    100.50771   -209.09554    167.88243    81.045172     81.76566    209.09554   0.84340518 
   77700    1112814.4    100.17041   -189.69695    167.90372    81.061345    81.761456    189.69695   0.84363899 
   77720    1112062.1    100.54629    -110.1773    167.92502     81.01135    81.746238     110.1773   0.84387281 
   77740    1112834.9    100.14647   -129.81345    167.94631    81.031716    81.772118    129.81345   0.84410662 
   77760    1113196.9    100.52051   -169.71704    167.96761    81.017485    81.802709    169.71704   0.84434044 
   77780    1113603.5    100.57608   -127.95555     167.9889    81.037394    81.802117    127.95555   0.84457426 
   77800    1114422.9     99.95876   -139.42278    168.01019    81.046489    81.842748    139.42278   0.84480807 
   77820    1114080.3    100.04678   -143.53901    168.03149    81.014732    81.839282    143.53901   0.84504189 
   77840    1114677.9    100.18544    -186.8252    168.05278    81.024916    81.862519     186.8252    0.8452757 
   77860    1115107.7    99.811363   -212.81836    168.07408     81.05996    81.848304    212.81836   0.84550952 
   77880    1114844.3    99.907639   -148.36823    168.09537    81.024409    81.854507    148.36823   0.84574334 
   77900      1115241    99.879564   -192.20528    168.11666    81.040558    81.856945    192.20528   0.84597715 
   77920    1114805.9    99.823049   -209.19165    168.13796    81.008448    81.847079    209.19165   0.84621097 
   77940    1115026.8    99.599164   -96.305822    168.15925    81.003855    81.857568    96.305822   0.84644478 
   77960    1115173.1    100.04603   -112.26774    168.18055    80.986526    81.875464    112.26774    0.8466786 
   77980    1114655.3     99.71786   -65.291135    168.20184    80.945737    81.868315    65.291135   0.84691242 
   78000    1114838.7    99.776356   -89.300641    168.22314    80.961311    81.855673    89.300641   0.84714623 
   78020    1114632.3    99.727767    -194.5881    168.24443    80.962924     81.82853     194.5881   0.84738005 
   78040    1114470.5    99.970888   -169.26073    168.26572    80.927359    81.842244    169.26073   0.84761386 
   78060    1114628.6    99.641359   -100.76059    168.28702    80.917847    81.853123    100.76059   0.84784768 
   78080    1114700.9    99.735145   -81.214708    168.30831    80.918564    81.847351    81.214708   0.84808149 
   78100    1115570.3    100.15142   -161.84942    168.32961    80.979544     81.83915    161.84942   0.84831531 
   78120    1115735.1    99.723642   -126.74532     168.3509    80.986539     81.83382    126.74532   0.84854913 
   78140    1115362.3    100.32565   -76.372363    168.37219    80.942417    81.840714    76.372363   0.84878294 
   78160      1116298    100.31551   -110.43991    168.39349    80.954891    81.886394    110.43991   0.84901676 
   78180      1116345     100.3148   -40.042961    168.41478    80.965209    81.869057    40.042961   0.84925057 
   78200      1117011    100.63905   -75.153195    168.43608    80.954482    81.918395    75.153195   0.84948439 
   78220    1117423.9    100.36059    -16.40393    168.45737     80.97571    81.916836     16.40393   0.84971821 
   78240    1117484.6    100.20351   -130.80106    168.47866      80.9585    81.928343    130.80106   0.84995202 
   78260    1117530.5    100.52172   -135.83173    168.49996    80.955501    81.924394    135.83173   0.85018584 
   78280    1117409.9    100.43493   -25.327438    168.52125    80.913848    81.947365    25.327438   0.85041965 
   78300    1118093.4    100.24182   -65.761732    168.54255    80.921004    81.979878    65.761732   0.85065347 
   78320    1118580.4     100.3296   -124.02153    168.56384    80.932576    81.993496    124.02153   0.85088729 
   78340    1118700.9    100.20006   -160.65875    168.58513    80.959825    81.964379    160.65875    0.8511211 
   78360    1119609.5     100.0726   -170.82585    168.60643    80.995614    81.984348    170.82585   0.85135492 
   78380    1119068.3    100.18205   -45.674135    168.62772    80.959728    81.970687    45.674135   0.85158873 
   78400    1119205.8    99.593069   -99.922941    168.64902    80.922566    82.008054    99.922941   0.85182255 
   78420    1119417.2    100.14822   -202.45719    168.67031    80.931976     82.00365    202.45719   0.85205637 
   78440    1118841.8    99.622183   -119.35917     168.6916    80.945558    81.937405    119.35917   0.85229018 
   78460    1119311.2    99.681377   -164.12236     168.7129    80.964239    81.942519    164.12236     0.852524 
   78480    1118541.3    99.689574   -121.44106    168.73419    80.928317    81.912168    121.44106   0.85275781 
   78500    1117933.2     99.85576   -145.23696    168.75549    80.883957    81.902198    145.23696   0.85299163 
   78520    1118561.8    99.923212   -270.44867    168.77678    80.872524    81.949494    270.44867   0.85322545 
   78540    1118576.6    99.614448   -157.12442    168.79808    80.869712     81.94309    157.12442   0.85345926 
   78560    1118813.3    100.06826   -148.98414    168.81937    80.859229    81.960719    148.98414   0.85369308 
   78580    1119512.4    100.23214   -198.75832    168.84066    80.903371    81.956845    198.75832   0.85392689 
   78600    1118585.1    99.748268   -177.75717    168.86196    80.872307    81.910086    177.75717   0.85416071 
   78620    1118295.7    100.40887   -96.610758    168.88325    80.858761    81.892288    96.610758   0.85439453 
   78640    1117918.8    100.43835   -120.82855    168.90455    80.842298    81.871034    120.82855   0.85462834 
   78660    1117352.1    99.749479   -63.985512    168.92584    80.833343    81.828281    63.985512   0.85486216 
   78680    1117559.5    100.20739   -128.65051    168.94713    80.852537    81.813725    128.65051   0.85509597 
   78700    1118006.5    99.988443    -117.4741    168.96843    80.851709    81.836973     117.4741   0.85532979 
   78720    1118170.1    99.896976   -107.80965    168.98972    80.814743    81.876071    107.80965   0.85556361 
   78740    1118501.6    100.48133   -37.572764    169.01102    80.804531    81.900371    37.572764   0.85579742 
   78760    1119667.8    100.26517   -53.728534    169.03231    80.842772    81.936662    53.728534   0.85603124 
   78780    1120380.9    100.23525   -33.985975     169.0536    80.881158     81.93961    33.985975   0.85626505 
   78800    1121041.6    100.16164   -30.050858     169.0749    80.894232    81.964354    30.050858   0.85649887 
   78820    1120958.4    100.18301   -36.568129    169.09619    80.928003     81.91376    36.568129   0.85673269 
   78840    1121209.4    100.09382   -43.091312    169.11749    80.948764    81.900775    43.091312    0.8569665 
   78860    1121793.5    100.21335   -47.497571    169.13878    80.997619    81.883706    47.497571   0.85720032 
   78880    1121934.5    99.940583   -37.555204    169.16007    80.996071    81.885248    37.555204   0.85743413 
   78900    1121802.9    100.30605   -55.679749    169.18137    80.976067    81.885568    55.679749   0.85766795 
   78920    1121320.2    99.699599   -1.7943025    169.20266    80.968518    81.847656    1.7943025   0.85790177 
   78940    1120951.6    99.791546    73.036823    169.22396    80.947386    81.831812   -73.036823   0.85813558 
   78960    1121174.6    99.682968    17.481694    169.24525    80.905535    81.880127   -17.481694    0.8583694 
   78980    1121394.8    99.373715   -35.929354    169.26654    80.906337    81.885094    35.929354   0.85860321 
   79000    1121222.1    99.823328    77.547031    169.28784    80.850725    81.918495   -77.547031   0.85883703 
   79020    1121038.7    99.871557    29.562718    169.30913    80.847131    81.898433   -29.562718   0.85907085 
   79040    1121329.9    100.02478   -46.009964    169.33043    80.876706    81.879455    46.009964   0.85930466 
   79060    1121862.4    99.772962   -104.17119    169.35172    80.877953    81.906778    104.17119   0.85953848 
   79080    1121929.3     99.63555   -12.412481    169.37301    80.882897    81.896353    12.412481   0.85977229 
   79100    1122491.7    99.770498    3.4598487    169.39431    80.907256    81.902442   -3.4598487   0.86000611 
   79120    1122741.6    100.33596   -65.121392     169.4156    80.908367    81.909256    65.121392   0.86023993 
   79140    1123118.7    99.606866   -233.63592     169.4369    80.945534    81.888849    233.63592   0.86047374 
   79160    1122744.3    100.24204   -112.03012    169.45819    80.900204    81.897127    112.03012   0.86070756 
   79180      1122261    99.945077   -17.311025    169.47949    80.894393    81.857466    17.311025   0.86094137 
   79200      1122729    99.805244    -40.62631    169.50078    80.921281    81.854114     40.62631   0.86117519 
   79220    1123164.6    100.34353   -122.52384    169.52207    80.929369      81.8674    122.52384   0.86140901 
   79240    1123064.2    99.852493   -181.66321    169.54337    80.909152    81.870253    181.66321   0.86164282 
   79260    1123160.2    100.13393    -65.34923    169.56466    80.922147    81.853823     65.34923   0.86187664 
   79280    1124037.9     100.1866   -102.46629    169.58596    80.961933    81.867248    102.46629   0.86211045 
   79300    1123737.9    100.07055   -58.297982    169.60725    80.932133    81.865255    58.297982   0.86234427 
   79320    1123815.5    100.48733   -117.61533    169.62854    80.941552    81.851106    117.61533   0.86257809 
   79340    1124554.6    100.36021   -141.58341    169.64984    80.987349     81.84835    141.58341    0.8628119 
   79360    1124832.8     100.2721   -18.736563    169.67113    80.989881    81.855765    18.736563   0.86304572 
   79380    1125122.9     100.4326   -82.636488    169.69243    80.992449    81.864002    82.636488   0.86327953 
   79400    1125526.9    100.20092   -143.37689    169.71372    80.979453    81.896261    143.37689   0.86351335 
   79420    1125576.6    100.45964    -90.27392    169.73501    80.976956    81.892132     90.27392   0.86374717 
   79440    1125796.2    100.42555   -88.098932    169.75631    80.959723    81.915268    88.098932   0.86398098 
   79460    1125813.5    99.896713   -57.086484     169.7776      80.9242    81.942202    57.086484    0.8642148 
   79480      1126124     100.3686   -116.47405     169.7989    80.934631    81.943965    116.47405   0.86444861 
   79500    1126084.2    100.00017   -214.88308    169.82019    80.934886     81.93053    214.88308   0.86468243 
   79520    1125924.7    99.695994   -22.614387    169.84148    80.926123    81.917524    22.614387   0.86491625 
   79540    1125371.5    100.17553   -54.476582    169.86278    80.907119    81.886244    54.476582   0.86515006 
   79560    1125473.5    99.812196   -66.711258    169.88407    80.914348    81.876086    66.711258   0.86538388 
   79580    1125855.7    100.02243   -84.606559    169.90537    80.930513    81.877265    84.606559   0.86561769 
   79600    1125852.6    100.32483   -35.739033    169.92666    80.909833    81.887709    35.739033   0.86585151 
   79620    1125900.2    99.824488   -6.3848587    169.94795    80.894858    81.896064    6.3848587   0.86608533 
   79640    1126408.1    99.703955   -22.660728    169.96925    80.922399    81.894866    22.660728   0.86631914 
   79660    1126458.7    100.22338   -39.591399    169.99054    80.891854    81.919207    39.591399   0.86655296 
   79680    1126601.7    99.528375   -72.049642    170.01184    80.938881    81.871746    72.049642   0.86678677 
   79700    1127050.7    100.17795   -26.310889    170.03313    80.927948    81.905179    26.310889   0.86702059 
   79720    1127198.3    99.836624   -85.913006    170.05443    80.916231    81.917507    85.913006   0.86725441 
   79740    1126956.7    100.02866   -34.145097    170.07572    80.896069    81.910104    34.145097   0.86748822 
   79760    1126444.4    100.06849   -95.561184    170.09701    80.867882     81.89116    95.561184   0.86772204 
   79780      1125974    99.637734   -56.131807    170.11831    80.829244     81.88584    56.131807   0.86795585 
   79800    1125632.9     99.74575   -2.3429255     170.1396    80.789197    81.891356    2.3429255   0.86818967 
   79820    1125311.1    99.939329    52.915697     170.1609    80.763162    81.884086   -52.915697   0.86842349 
   79840      1125944    99.789594   -73.808531    170.18219    80.803628    81.878869    73.808531    0.8686573 
   79860    1126037.6     99.66575   -74.714111    170.20348    80.797698    81.881442    74.714111   0.86889112 
   79880    1125740.7    100.01077   -38.542412    170.22478    80.788418    81.859007    38.542412   0.86912493 
   79900    1126330.3    99.964571   -35.631722    170.24607    80.825445     81.85412    35.631722   0.86935875 
   79920    1126550.2    100.38254   -119.13822    170.26737    80.833357    81.851857    119.13822   0.86959256 
   79940    1127219.8    99.967151    -37.41701    170.28866    80.820124    81.903673     37.41701   0.86982638 
   79960    1128125.4    100.32976   -1.3796763    170.30995    80.830916     81.94828    1.3796763    0.8700602 
   79980    1127756.7    100.19296   -126.62911    170.33125    80.826359    81.915871    126.62911   0.87029401 
   80000    1127693.9    100.42289   -128.67825    170.35254    80.843213    81.884002    128.67825   0.87052783 
Loop time of 7185.39 on 64 procs for 80000 steps with 72040 atoms

Performance: 0.962 ns/day, 24.949 hours/ns, 11.134 timesteps/s
99.6% CPU use with 64 MPI tasks x 1 OpenMP threads

MPI task timing breakdown:
Section |  min time  |  avg time  |  max time  |%varavg| %total
---------------------------------------------------------------
Pair    | 763.69     | 1824.2     | 2737.8     |1410.2 | 25.39
Bond    | 40.897     | 100.46     | 135.1      | 261.9 |  1.40
Kspace  | 361.27     | 1299.8     | 2421.7     |1743.7 | 18.09
Neigh   | 3589.8     | 3650.4     | 3688.4     |  60.0 | 50.80
Comm    | 149.33     | 213.85     | 310.72     | 326.8 |  2.98
Output  | 2.8209     | 2.8673     | 2.9314     |   1.4 |  0.04
Modify  | 48.316     | 88.687     | 116.62     | 198.6 |  1.23
Other   |            | 5.005      |            |       |  0.07

Nlocal:        1125.62 ave        2040 max           0 min
Histogram: 8 4 4 5 8 7 2 7 3 16
Nghost:        12062.0 ave       20040 max        3187 min
Histogram: 8 8 0 0 16 5 11 0 0 16
Neighs:       899901.0 ave 1.98133e+06 max           0 min
Histogram: 14 2 9 8 4 4 6 1 4 12

Total # of neighbors = 57593667
Ave neighs/atom = 799.46789
Ave special neighs/atom = 5.9972238
Neighbor list builds = 80000
Dangerous builds not checked
Total wall time: 1:59:49
