LAMMPS (29 Oct 2020)
OMP_NUM_THREADS environment is not set. Defaulting to 1 thread. (../comm.cpp:94)
  using 1 OpenMP thread(s) per MPI task
####################################################
#    This program is free software: you can redistribute it and/or modify
#    it under the terms of the GNU General Public License as published by
#    the Free Software Foundation, either version 3 of the License, or
#    (at your option) any later version.
#
#    This program is distributed in the hope that it will be useful,
#    but WITHOUT ANY WARRANTY; without even the implied warranty of
#    MERCHANTABILITY or FITNESS FOR A PARTICULAR PURPOSE.  See the
#    GNU General Public License for more details.


units		real        ## defines the units style used herein. More information: https://docs.lammps.org/units.html
atom_style	full        ## defines the atom style used herein. More information: https://docs.lammps.org/atom_style.html

# Styles
pair_style      lj/cut/coul/long 15.0 10.0      ## sets the formula(s) LAMMPS uses to compute pairwise interactions; here, lennard-jones (LJ) with long-range Coulomb interaction. More: https://docs.lammps.org/pair_lj_cut_coul.html
pair_modify     shift no                        ## the shift keyword determines whether a Lennard-Jones potential is shifted at its cutoff to 0.0. More: https://docs.lammps.org/pair_modify.html
kspace_style    pppm 1.0e-4                     ## defines a long-range solver for LAMMPS to compute long-range Coulombic interactions. Note: requires use of a matching pair style, i.e. PPPM with coul/long. More: https://docs.lammps.org/kspace_style.html
bond_style      harmonic                        ## defined based off the forcefield used to construct the system; models the atoms' interactions
angle_style     harmonic
dihedral_style  opls
improper_style  cvff
special_bonds   lj 0 0 1 coul 0 0 1

read_data       300K_PMP.lmps      ## input lammps datafile, equilibriated until structure nears experimental properties
Reading data file ...
  orthogonal box = (81.194286 81.194286 81.194286) to (168.80571 168.80571 168.80571)
  4 by 4 by 4 MPI processor grid
  reading atoms ...
  72040 atoms
  reading velocities ...
  72040 velocities
  scanning bonds ...
  2 = max bonds/atom
  scanning angles ...
  6 = max angles/atom
  scanning dihedrals ...
  15 = max dihedrals/atom
  reading bonds ...
  72020 bonds
  reading angles ...
  143880 angles
  reading dihedrals ...
  215640 dihedrals
Finding 1-2 1-3 1-4 neighbors ...
  special bond factors lj:    0.0      0.0      1.0     
  special bond factors coul:  0.0      0.0      1.0     
     4 = max # of 1-2 neighbors
     9 = max # of 1-3 neighbors
    13 = max # of special neighbors
  special bonds CPU = 1.562 seconds
  read_data CPU = 3.865 seconds

dielectric      1.0
neighbor    	1.0 bin
neigh_modify	delay 0 every 1 check no        ## this is to make sure that the neighbor list is updated every timestep, and the atoms don't get lost as the system is being deformed ##

timestep	    1.0                             ## unit = fs, per "real" unit style
run_style       verlet                          ## defines algorithm used for simulation computation; verlet integration is a numerical method used to integrate Newton's equations of motion.

variable stress equal press*-1                         ## computes stress as the negative of press values
variable engStrain equal (lx-91.07191)/91.07191      ## computes engineering strain; lx_0 must be found and inputted manually (for now)

thermo		    20                                                               ## output log data (headers in thermo_style), recorded at every timestep in numList.txt
thermo_style    custom step vol temp press lx ly lz v_stress v_engStrain         ## data headers of output log file. More: https://docs.lammps.org/thermo_style.html

################# Deformation ##################

fix 1 all npt temp 300 300 100 y 1 1 100.0 z 1 1 100.0      ## stress normal to the x direction can vary; external pressure (y and z) = 1atm ##

fix 2 all deform 1 x scale 2.0 remap x                      ## sets a uniaxial (x-direction) deformation in motion, scaling a set amount (here, 4.0x) the initial length


################# Dumping ##################

reset_timestep 0

dump dump2 all custom 2000 sim.lammpstrj id mol type q xs ys zs ix iy iz

restart 4000 PMP.restart

run 		40000              ## this depends on the overall strain rate, where strain rate = deformScale / runTimeSteps (consider units!)
PPPM initialization ...
  using 12-bit tables for long-range coulomb (../kspace.cpp:328)
  G vector (1/distance) = 0.2058473
  grid = 24 24 24
  stencil order = 5
  estimated absolute RMS force accuracy = 0.021221725
  estimated relative force accuracy = 6.3908593e-05
  using double precision FFTW3
  3d grid and FFT values/proc = 1331 216
Neighbor list info ...
  update every 1 steps, delay 0 steps, check no
  max neighbors/atom: 2000, page size: 100000
  master list distance cutoff = 16
  ghost atom cutoff = 16
  binsize = 8, bins = 11 11 11
  1 neighbor lists, perpetual/occasional/extra = 1 0 0
  (1) pair lj/cut/coul/long, perpetual
      attributes: half, newton on
      pair build: half/bin/newton
      stencil: half/bin/3d/newton
      bin: standard
Per MPI rank memory allocation (min/avg/max) = 31.97 | 32.37 | 32.76 Mbytes
Step Volume Temp Press Lx Ly Lz v_stress v_engStrain 
       0    672484.51    301.29368    7181.6592    87.611428    87.611428    87.611428   -7181.6592 -0.037997245 
      20    679980.96    309.20354    914.93658    87.655234    88.081939    88.070818   -914.93658 -0.037516243 
      40    682379.42    305.66255    -1229.018     87.69904    88.192898    88.226179     1229.018 -0.037035242 
      60    679101.42    305.31666   -683.09786    87.742845    87.994255    87.956635    683.09786 -0.036554241 
      80    678726.44    305.99793   -602.04133    87.786651     87.95199    87.906424    602.04133 -0.036073239 
     100    679403.65    305.55892   -957.67222    87.830457    87.960488    87.941749    957.67222 -0.035592238 
     120    679042.06    304.87725    625.72994    87.874263    87.882447    87.929142   -625.72994 -0.035111236 
     140    680822.69    305.53656    382.21976    87.918068    87.959444    88.038657   -382.21976 -0.034630235 
     160    679647.19    304.23838    175.34021    87.961874    87.867019    87.935281   -175.34021 -0.034149234 
     180    679419.11    303.28403     55.82619     88.00568    87.817925    87.911135    -55.82619 -0.033668232 
     200    680999.86    304.30998     -109.485    88.049485    87.882802    88.006815      109.485 -0.033187231 
     220     681481.2    301.18349   -119.69132    88.093291    87.967501    87.940472    119.69132 -0.032706229 
     240    681401.59    302.31812   -229.96499    88.137097    87.935561    87.918418    229.96499 -0.032225228 
     260    680952.59    302.39718   -38.444026    88.180903    87.877422    87.874938    38.444026 -0.031744227 
     280    682296.94    299.59614   -367.32344    88.224708    87.956855    87.925228    367.32344 -0.031263225 
     300    682307.63    300.67432   -176.26548    88.268514      87.8681    87.971738    176.26548 -0.030782224 
     320    681362.09    301.03086    374.81774     88.31232    87.746688    87.927747   -374.81774 -0.030301223 
     340     681425.3    301.61284     747.6688    88.356125    87.748887    87.890103    -747.6688 -0.029820221 
     360     683327.4    300.78352   -947.55763    88.399931    87.820784    88.019642    947.55763  -0.02933922 
     380    681968.41    300.61062   -352.19302    88.443737    87.654605    87.967538    352.19302 -0.028858218 
     400    681505.17     299.4946    91.650421    88.487543    87.616558     87.90242   -91.650421 -0.028377217 
     420    681938.15    299.61083    17.588107    88.531348    87.592443    87.938949   -17.588107 -0.027896216 
     440    682213.25    299.90359    6.0801705    88.575154    87.600926      87.9224   -6.0801705 -0.027415214 
     460    682748.08    299.38144   -367.11063     88.61896    87.601954    87.946801    367.11063 -0.026934213 
     480    682330.01    299.11159   -283.80693    88.662765    87.548483    87.903177    283.80693 -0.026453212 
     500    682907.81    298.93183   -60.351401    88.706571     87.59953    87.882927    60.351401  -0.02597221 
     520    684169.16    299.21768   -335.34292    88.750377    87.688241    87.912764    335.34292 -0.025491209 
     540    683512.76    299.36506    185.86268    88.794183    87.634972    87.838449   -185.86268 -0.025010207 
     560    683135.64    298.47687    44.012455    88.837988    87.562596    87.819224   -44.012455 -0.024529206 
     580    682860.23    299.66734    103.12638    88.881794    87.516992    87.786276   -103.12638 -0.024048205 
     600    682898.15    298.77127   -328.79067      88.9256    87.476922    87.788098    328.79067 -0.023567203 
     620    683145.13    300.56033   -467.92104    88.969405     87.49797    87.755493    467.92104 -0.023086202 
     640    682980.67     300.0469    -451.6635    89.013211    87.497255    87.691906     451.6635 -0.022605201 
     660    682745.91    299.27679   -50.568074    89.057017    87.474404    87.641534    50.568074 -0.022124199 
     680    683074.12    299.51583   -33.865759    89.100823     87.44627    87.668753    33.865759 -0.021643198 
     700    683455.89    300.98345   -161.68122    89.144628    87.421566    87.699421    161.68122 -0.021162196 
     720    683508.99    300.99656   -18.209296    89.188434    87.333495    87.751562    18.209296 -0.020681195 
     740    683717.04    299.34654    -232.4169     89.23224    87.316428    87.752329     232.4169 -0.020200194 
     760    683645.72    300.69554   -194.29429    89.276045      87.3808    87.635514    194.29429 -0.019719192 
     780    683662.59    300.98098   -292.88838    89.319851    87.385692    87.589792    292.88838 -0.019238191 
     800    684153.91    302.16667   -351.43578    89.363657      87.3635    87.632027    351.43578  -0.01875719 
     820    684796.26    300.31862    -240.4183    89.407463    87.386315    87.648439     240.4183 -0.018276188 
     840    684816.68    300.97639     51.46931    89.451268    87.419609    87.574761    -51.46931 -0.017795187 
     860    684844.76    300.71336    187.93679    89.495074    87.426728    87.528357   -187.93679 -0.017314185 
     880    685191.16     299.5688   -345.77005     89.53888    87.412517    87.544016    345.77005 -0.016833184 
     900     684679.7    300.83339   -534.37478    89.582685    87.325112    87.523408    534.37478 -0.016352183 
     920    685144.45    300.95709   -430.01688    89.626491    87.335735    87.529363    430.01688 -0.015871181 
     940    685704.57    299.25474   -299.46326    89.670297    87.365526    87.528269    299.46326  -0.01539018 
     960    685292.82    300.96404    16.761482    89.714103    87.313896    87.484697   -16.761482 -0.014909179 
     980    685579.25    299.92739    338.41992    89.757908    87.381478    87.410893   -338.41992 -0.014428177 
    1000    685921.44     299.7377    91.607832    89.801714    87.386742    87.406596   -91.607832 -0.013947176 
    1020    686190.88    299.93717   -255.43061     89.84552    87.412787    87.372256    255.43061 -0.013466174 
    1040     686367.7     299.7657   -593.70244    89.889325     87.36978    87.395179    593.70244 -0.012985173 
    1060     686000.5    299.73083   -310.24896    89.933131    87.351512    87.324135    310.24896 -0.012504172 
    1080    686364.52    299.26367   -409.39438    89.976937    87.334889    87.344558    409.39438  -0.01202317 
    1100    687291.86    300.04055   -732.01866    90.020743    87.387299    87.367577    732.01866 -0.011542169 
    1120    686854.52    299.79797    -32.35531    90.064548    87.282851    87.373948     32.35531 -0.011061167 
    1140    686870.32    299.82964    11.007175    90.108354    87.299349    87.316976   -11.007175 -0.010580166 
    1160     686913.4    299.77464    183.07158     90.15216    87.288066    87.291305   -183.07158 -0.010099165 
    1180    687318.64    300.26338   -443.33409    90.195965    87.249217    87.339252    443.33409 -0.0096181634 
    1200    687584.04    300.24068   -640.10011    90.239771    87.268772    87.310994    640.10011 -0.009137162 
    1220    687514.15     300.7385   -553.91845    90.283577    87.243129    87.285409    553.91845 -0.0086561606 
    1240    687510.96    299.93983    -197.5736    90.327383    87.211497    87.274316     197.5736 -0.0081751592 
    1260    688489.69    299.41911   -227.37112    90.371188    87.256134    87.311507    227.37112 -0.0076941579 
    1280    688250.59    299.53384   -253.61073    90.414994    87.231198    87.263836    253.61073 -0.0072131565 
    1300    688130.79    300.41489    105.52047      90.4588     87.20429    87.233304   -105.52047 -0.0067321551 
    1320    689271.06    299.62857   -57.411456    90.502605    87.295977    87.243831    57.411456 -0.0062511537 
    1340    689930.36    300.15637   -809.87959    90.546411    87.318733    87.262287    809.87959 -0.0057701523 
    1360    689584.35    299.92434   -583.13973    90.590217    87.295905    87.199145    583.13973 -0.005289151 
    1380    688875.55    298.68889   -379.24164    90.634023    87.290244     87.07306    379.24164 -0.0048081496 
    1400    687897.33    300.93441   -186.47413    90.677828     87.20013    86.997221    186.47413 -0.0043271482 
    1420     688288.5    299.90752   -38.384239    90.721634    87.157813    87.046904    38.384239 -0.0038461468 
    1440    689012.61    299.53307    87.139743     90.76544    87.188577    87.065693   -87.139743 -0.0033651455 
    1460    688685.45     300.4038   -251.63845    90.809245    87.142489    87.028376    251.63845 -0.0028841441 
    1480    689291.59    300.80934   -679.40115    90.853051    87.145363    87.060104    679.40115 -0.0024031427 
    1500    689861.01    300.29107    -531.0544    90.896857    87.119132    87.116254     531.0544 -0.0019221413 
    1520    690083.19     299.1991   -286.04798    90.940663    87.095791    87.125677    286.04798 -0.0014411399 
    1540    690498.96     299.3521   -363.21839    90.984468    87.108614    87.123369    363.21839 -0.00096013857 
    1560     689871.6    300.48505   -184.03667    91.028274    87.043846    87.067061    184.03667 -0.00047913719 
    1580     690334.8    300.49672   -54.546453     91.07208    87.023102    87.104371    54.546453 1.8641892e-06 
    1600    691377.83    299.65725   -212.13395    91.115885    87.092297    87.124762    212.13395 0.00048286557 
    1620    691134.57    300.67493   -447.31758    91.159691    87.016918    87.127664    447.31758 0.00096386694 
    1640    691157.59    299.70854   -387.53146    91.203497    87.005275    87.100372    387.53146 0.0014448683 
    1660    691404.06    300.30275    -463.8421    91.247303    87.032594    87.062265     463.8421 0.0019258697 
    1680     691144.4    300.20367   -434.41849    91.291108    87.024249     86.99615    434.41849 0.0024068711 
    1700    691826.88    300.44623    -457.7801    91.334914    87.072407    86.992149     457.7801 0.0028878725 
    1720    692742.73    300.61873   -225.12356     91.37872    87.113256    87.024725    225.12356 0.0033688738 
    1740    693191.22    300.84828   -497.64234    91.422525    87.097924    87.054663    497.64234 0.0038498752 
    1760    693056.62    301.03722   -522.92497    91.466331    87.073975    87.020001    522.92497 0.0043308766 
    1780     692314.1    298.68999   -265.31929    91.510137    87.031196    86.927866    265.31929  0.004811878 
    1800    692980.45    299.14732   -584.89981    91.553943    87.059626    86.941502    584.89981 0.0052928793 
    1820    693507.86    299.72173   -161.70746    91.597748    87.048858    86.976818    161.70746 0.0057738807 
    1840    693076.71    299.19049   -153.10139    91.641554    86.995395    86.934588    153.10139 0.0062548821 
    1860    693060.91    298.95319   -435.14226     91.68536    86.977721    86.908727    435.14226 0.0067358835 
    1880    693512.69    300.04613    -650.4041    91.729165    86.946821     86.95474     650.4041 0.0072168849 
    1900    692890.63    300.62088   -443.62783    91.772971      86.8711    86.910965    443.62783 0.0076978862 
    1920    692789.26    298.80555   -519.80352    91.816777    86.850042    86.877851    519.80352 0.0081788876 
    1940     692563.9    299.69746   -211.79492    91.860583    86.806216    86.852002    211.79492  0.008659889 
    1960    692396.94    299.44187   -91.340097    91.904388    86.745603    86.850319    91.340097 0.0091408904 
    1980    693629.57    300.75426   -642.18008    91.948194    86.795749     86.91324    642.18008 0.0096218917 
    2000    693475.38    299.40932   -648.50459       91.992    86.801554    86.846734    648.50459  0.010102893 
    2020    692819.04     300.0418   -337.94973    92.035805    86.765369    86.759408    337.94973  0.010583894 
    2040    693713.19    300.95161   -265.91358    92.079611    86.790229     86.80518    265.91358  0.011064896 
    2060    694781.18    299.07352   -418.41696    92.123417    86.815033    86.872651    418.41696  0.011545897 
    2080    694642.92    300.47854   -243.63532    92.167223    86.794077    86.835043    243.63532  0.012026899 
    2100     694911.2    300.71565   -215.53024    92.211028    86.778329    86.843069    215.53024    0.0125079 
    2120     694881.8    300.41755   -255.54572    92.254834     86.74478     86.83173    255.54572  0.012988901 
    2140    695590.82    301.07674    -629.6514     92.29864    86.755669    86.868171     629.6514  0.013469903 
    2160    695651.15    300.75695   -230.92771    92.342445    86.717772    86.872441    230.92771  0.013950904 
    2180    695529.18    301.96226   -600.71989    92.386251    86.617213    86.916815    600.71989  0.014431906 
    2200    695906.12    301.61997   -795.56528    92.430057    86.614877    86.925049    795.56528  0.014912907 
    2220    696520.83    300.84182   -352.49433    92.473863     86.65384    86.921516    352.49433  0.015393908 
    2240    696426.69    301.55179   -226.79694    92.517668    86.595874    86.926767    226.79694   0.01587491 
    2260    695803.26    302.04605   -292.45863    92.561474    86.536734    86.867174    292.45863  0.016355911 
    2280    695534.32    301.77413   -300.65947     92.60528    86.501997    86.827377    300.65947  0.016836912 
    2300    695821.28    302.69946   -319.76312    92.649085     86.49436    86.829796    319.76312  0.017317914 
    2320    696117.34    300.37142   -608.68036    92.692891    86.493892    86.826158    608.68036  0.017798915 
    2340    696154.84    301.81541   -443.79485    92.736697    86.493563    86.790149    443.79485  0.018279917 
    2360    696965.01    300.23126   -372.58457    92.780503    86.533228    86.810319    372.58457  0.018760918 
    2380    697212.17    300.44803   -279.90602    92.824308    86.511587    86.821835    279.90602  0.019241919 
    2400    696977.99    301.03423   -400.06808    92.868114    86.431082    86.832536    400.06808  0.019722921 
    2420       697570    299.77929    -478.2464     92.91192    86.463705    86.832543     478.2464  0.020203922 
    2440    697828.94    300.18893   -573.60035    92.955725    86.491626    86.795812    573.60035  0.020684923 
    2460    697510.47    301.50192   -324.44937    92.999531    86.462881    86.744165    324.44937  0.021165925 
    2480    698105.76    299.87666   -182.01841    93.043337    86.472392    86.767777    182.01841  0.021646926 
    2500    698498.81    300.11134   -726.54993    93.087143    86.458748    86.789468    726.54993  0.022127928 
    2520    698099.59    301.45234   -755.08538    93.130948    86.412576    86.745391    755.08538  0.022608929 
    2540    698642.01     298.9659   -225.10268    93.174754    86.449949    86.734464    225.10268   0.02308993 
    2560    699587.98    299.67635   -494.27759     93.21856     86.48791    86.772988    494.27759  0.023570932 
    2580    699957.42    299.37917   -509.44631    93.262365    86.488716    86.777223    509.44631  0.024051933 
    2600       700347    298.18636   -734.18036    93.306171    86.459844    86.813738    734.18036  0.024532934 
    2620    700231.65      300.115   -589.00893    93.349977    86.434745    86.783901    589.00893  0.025013936 
    2640    700230.76     298.8976   -502.78835    93.393783     86.40822    86.769713    502.78835  0.025494937 
    2660    700962.99     300.1159   -438.29349    93.437588    86.442126    86.785671    438.29349  0.025975939 
    2680    701095.14    300.24961   -99.055662    93.481394    86.396228     86.80745    99.055662   0.02645694 
    2700    700458.07    299.39251   -518.33242      93.5252    86.292643    86.792006    518.33242  0.026937941 
    2720    700404.65    299.68412   -690.89306    93.569005    86.251492    86.786143    690.89306  0.027418943 
    2740    700943.69    299.88443   -726.04217    93.612811    86.224903    86.839063    726.04217  0.027899944 
    2760    700240.22    298.91948   -302.92124    93.656617     86.09522    86.841946    302.92124  0.028380945 
    2780    700717.77    299.95724   -534.93716    93.700423    86.170806    86.784352    534.93716  0.028861947 
    2800    700789.59    299.48939   -436.52331    93.744228    86.212326     86.71091    436.52331  0.029342948 
    2820    700361.96    299.00378   -155.98919    93.788034    86.188215    86.641753    155.98919   0.02982395 
    2840    701277.81    300.76301   -585.53352     93.83184    86.254716    86.647696    585.53352  0.030304951 
    2860    701843.55    299.77271   -714.51297    93.875645    86.315891    86.615699    714.51297  0.030785952 
    2880    701465.03    299.84846    -162.5297    93.919451    86.308284    86.536235     162.5297  0.031266954 
    2900    702946.14    300.84543    -667.5183    93.963257    86.369003    86.617587     667.5183  0.031747955 
    2920    703677.34    300.53777   -610.61006    94.007063    86.365736     86.67056    610.61006  0.032228956 
    2940    703403.19    300.33719   -174.18944    94.050868    86.309519    86.652845    174.18944  0.032709958 
    2960    703654.52    301.16265    209.30665    94.094674    86.333612    86.619272   -209.30665  0.033190959 
    2980    704608.71    300.14144   -538.53112     94.13848    86.347218     86.68271    538.53112  0.033671961 
    3000    704363.44    300.19427   -700.86147    94.182285     86.31382    86.645746    700.86147  0.034152962 
    3020    704568.62    300.74439   -666.17267    94.226091    86.287898    86.656717    666.17267  0.034633963 
    3040    705459.68    300.52081   -734.00495    94.269897     86.34946    86.664162    734.00495  0.035114965 
    3060    705635.16    302.25004   -567.07153    94.313703    86.320951    86.674072    567.07153  0.035595966 
    3080    704920.54    299.20452    187.96402    94.357508     86.23797    86.629374   -187.96402  0.036076968 
    3100    705666.35    300.99188   -456.18752    94.401314    86.254059    86.664618    456.18752  0.036557969 
    3120    705501.67    300.69875   -624.59605     94.44512    86.281914    86.576246    624.59605   0.03703897 
    3140     704906.6    301.32723   -688.04444    94.488925    86.217659    86.527557    688.04444  0.037519972 
    3160     704649.7      299.594    -493.6514    94.532731    86.212906    86.460707     493.6514  0.038000973 
    3180    704677.08    299.13928   -500.92623    94.576537    86.205308    86.431635    500.92623  0.038481974 
    3200    704317.56     300.8583   -347.45442    94.620343    86.167847    86.385084    347.45442  0.038962976 
    3220     704560.4    299.97168   -457.24938    94.664148    86.111671    86.431227    457.24938  0.039443977 
    3240    704428.96    299.53826   -698.13091    94.707954    86.088362    86.398519    698.13091  0.039924979 
    3260    703752.43    299.81191   -242.58671     94.75176    86.018333    86.345877    242.58671   0.04040598 
    3280    704798.93    299.18466   -678.18319    94.795565    86.006572    86.446134    678.18319  0.040886981 
    3300    704779.35    298.81242   -856.31589    94.839371    85.918757    86.492115    856.31589  0.041367983 
    3320    704499.66    299.62881    -351.3995    94.883177    85.826843    86.510423     351.3995  0.041848984 
    3340    705106.57    298.91211   -444.53583    94.926983    85.872576    86.498902    444.53583  0.042329985 
    3360    704805.43    299.68314   -553.38532    94.970788    85.875603    86.419032    553.38532  0.042810987 
    3380    704486.78    300.33269   -577.35802    95.014594    85.843643    86.372281    577.35802  0.043291988 
    3400    705296.81    300.32328    -544.6005      95.0584    85.858509     86.41678     544.6005   0.04377299 
    3420    705022.01    300.50017   -260.48033    95.102205    85.844726    86.357183    260.48033  0.044253991 
    3440    705383.23    301.37166   -151.82513    95.146011    85.872024    86.334195    151.82513  0.044734992 
    3460    706578.24    298.75923   -661.02645    95.189817    85.954431    86.357786    661.02645  0.045215994 
    3480    706293.43    300.20945   -729.07256    95.233623    85.955922    86.281772    729.07256  0.045696995 
    3500    706345.28    299.88799   -657.72745    95.277428    85.947835     86.25655    657.72745  0.046177996 
    3520    706653.19    299.29971   -261.80089    95.321234    85.988776    86.213425    261.80089  0.046658998 
    3540    707470.86    299.03523   -534.59687     95.36504    85.980378    86.281963    534.59687  0.047139999 
    3560    707218.47    300.06316   -418.46528    95.408845    85.896432    86.295834    418.46528  0.047621001 
    3580    707150.41    299.95113   -493.02221    95.452651    85.933053    86.211174    493.02221  0.048102002 
    3600    707092.27    300.92128   -494.87898    95.496457    85.907694    86.189978    494.87898  0.048583003 
    3620    706984.76    300.57269   -456.46611    95.540263    85.910625    86.134422    456.46611  0.049064005 
    3640    707826.78    300.28657   -895.68892    95.584068    86.009559    86.098335    895.68892  0.049545006 
    3660    707880.87    299.16998   -139.20628    95.627874    86.007265    86.067768    139.20628  0.050026007 
    3680    708816.08    299.94403   -575.36302     95.67168     85.96072    86.188658    575.36302  0.050507009 
    3700    708957.27    299.75158   -469.68539    95.715485    85.948383    86.178741    469.68539   0.05098801 
    3720    709327.19    300.31378   -542.36027    95.759291    85.941284    86.191383    542.36027  0.051469012 
    3740     709660.7    300.62432   -330.50809    95.803097    85.843486    86.290674    330.50809  0.051950013 
    3760    710069.23    300.23312   -489.97442    95.846903    85.893264    86.250874    489.97442  0.052431014 
    3780    710261.35    300.50103   -543.68166    95.890708    85.937958    86.189949    543.68166  0.052912016 
    3800    710315.75    299.39983   -692.65757    95.934514    85.899484     86.19578    692.65757  0.053393017 
    3820    710368.39     299.0707    -515.2234     95.97832     85.82278    86.239833     515.2234  0.053874018 
    3840    711447.06    299.06658    -922.0239    96.022125    85.931015    86.222643     922.0239   0.05435502 
    3860    711383.24     298.7234   -375.27321    96.065931    85.885028    86.221737    375.27321  0.054836021 
    3880    710624.37    300.09611   -174.81375    96.109737       85.793     86.18285    174.81375  0.055317023 
    3900    710853.06    298.31589    -630.2485    96.153543    85.787832      86.1765     630.2485  0.055798024 
    3920    711037.44      299.573    -638.5389    96.197348    85.803963    86.143402     638.5389  0.056279025 
    3940    711133.03    300.29285   -648.79904    96.241154     85.80259    86.117147    648.79904  0.056760027 
    3960    710925.84    300.50428   -241.64312     96.28496    85.787722    86.067803    241.64312  0.057241028 
    3980    711300.79    299.77659   -356.22803    96.328765    85.788957    86.072795    356.22803   0.05772203 
    4000    711357.46    300.61608   -356.60616    96.372571    85.708423    86.121373    356.60616  0.058203031 
    4020    710889.01    299.97455   -523.67265    96.416377    85.680125    86.053967    523.67265  0.058684032 
    4040    710056.02    299.93141   -337.28807    96.460183    85.567407    86.027274    337.28807  0.059165034 
    4060    710978.59    301.62346    -561.0539    96.503988    85.646571    86.020366     561.0539  0.059646035 
    4080     711311.8    299.90535   -215.11856    96.547794     85.65261    86.015567    215.11856  0.060127036 
    4100    711440.51    300.51787   -471.66146      96.5916    85.615568     86.02932    471.66146  0.060608038 
    4120    711300.21    300.53458   -475.99629    96.635405    85.578396    86.010708    475.99629  0.061089039 
    4140    711749.56     300.0191   -221.56461    96.679211    85.601601    86.002728    221.56461  0.061570041 
    4160    712444.98    301.12294   -404.59973    96.723017    85.662473    85.986622    404.59973  0.062051042 
    4180    712532.54    300.51604   -578.74053    96.766823      85.6295    85.991359    578.74053  0.062532043 
    4200    712157.95    299.43327    -338.9305    96.810628    85.582302    85.954639     338.9305  0.063013045 
    4220     712501.6     300.8418   -592.87108    96.854434    85.594534    85.944939    592.87108  0.063494046 
    4240    713429.29    301.42354   -988.00357     96.89824    85.633492    85.978803    988.00357  0.063975047 
    4260    713951.31    300.00322   -899.19712    96.942045    85.613558    86.022858    899.19712  0.064456049 
    4280    712680.18    301.89577    115.07152    96.985851    85.543346    85.901365   -115.07152   0.06493705 
    4300    712683.21    300.00109   -213.33698    97.029657    85.503596    85.902866    213.33698  0.065418052 
    4320    712979.72    301.26863   -324.86819    97.073463    85.465892    85.937719    324.86819  0.065899053 
    4340     712233.2     300.9386   -216.54564    97.117268    85.451754    85.823213    216.54564  0.066380054 
    4360    712263.64    301.08336   -621.55942    97.161074    85.440012    85.799977    621.55942  0.066861056 
    4380    712941.28     298.8453   -1134.8929     97.20488    85.444176    85.838719    1134.8929  0.067342057 
    4400    712933.38    300.25676   -788.41825    97.248685    85.434068    85.809254    788.41825  0.067823058 
    4420    712937.53    299.65217    -578.3349    97.292491    85.380722    85.824708     578.3349   0.06830406 
    4440    713638.41    300.71772   -716.24815    97.336297    85.408297    85.842693    716.24815  0.068785061 
    4460    713215.35    298.36392   -155.82562    97.380103    85.348777    85.813012    155.82562  0.069266063 
    4480     713488.1    299.59493    39.561926    97.423908    85.289726     85.86664   -39.561926  0.069747064 
    4500    715052.35    299.75927   -828.05606    97.467714    85.322722    85.982953    828.05606  0.070228065 
    4520    714904.04    299.90867   -725.64031     97.51152    85.340454    85.908647    725.64031  0.070709067 
    4540    714916.05    299.59735   -389.41692    97.555325    85.336867    85.875123    389.41692  0.071190068 
    4560    716191.24     299.0675   -1019.5956    97.599131    85.386627    85.939574    1019.5956  0.071671069 
    4580    715904.44    300.08305   -546.69732    97.642937    85.343818     85.90969    546.69732  0.072152071 
    4600    715129.08    299.86521    113.78227    97.686743    85.263207    85.859262   -113.78227  0.072633072 
    4620    715720.64    301.39846   -222.45206    97.730548    85.253819    85.901226    222.45206  0.073114074 
    4640    715971.36    298.92571   -616.22489    97.774354    85.283071    85.863357    616.22489  0.073595075 
    4660    716308.02    299.91537   -540.47474     97.81816    85.264738    85.883722    540.47474  0.074076076 
    4680    716859.84    299.53887   -853.54038    97.861965    85.295598    85.880329    853.54038  0.074557078 
    4700    716977.15    298.85767    -653.9729    97.905771    85.309819    85.841639     653.9729  0.075038079 
    4720    717163.26    300.83544   -575.38963    97.949577    85.281327    85.854194    575.38963   0.07551908 
    4740    717303.13     299.9204   -235.01393    97.993383    85.249885     85.86421    235.01393  0.076000082 
    4760    717721.09    300.77637   -601.76448    98.037188    85.249793    85.875945    601.76448  0.076481083 
    4780     717961.8    301.80125   -571.15545    98.080994    85.230599    85.885715    571.15545  0.076962085 
    4800    718157.74    301.65416   -509.82238      98.1248    85.284198    85.816835    509.82238  0.077443086 
    4820    718735.02    301.89601    -508.1471    98.168605    85.324796    85.806646     508.1471  0.077924087 
    4840    719047.89    301.38819   -593.63783    98.212411    85.270929    85.859914    593.63783  0.078405089 
    4860    719025.54    302.11904    -393.1484    98.256217    85.306679    85.783002     393.1484   0.07888609 
    4880    719854.14    300.55635   -517.14382    98.300023    85.300601    85.849703    517.14382  0.079367092 
    4900     720338.4    300.84799   -383.82473    98.343828    85.306196    85.863558    383.82473  0.079848093 
    4920    721265.93    301.47272   -580.08858    98.387634    85.364637    85.877008    580.08858  0.080329094 
    4940     721035.1    300.82717   -672.72173     98.43144    85.329266    85.846888    672.72173  0.080810096 
    4960    720881.84     299.5095   -713.45607    98.475245    85.298544     85.82136    713.45607  0.081291097 
    4980    720627.81    300.30356   -616.96844    98.519051    85.296848    85.754677    616.96844  0.081772098 
    5000    719593.11    301.68199    44.193706    98.562857    85.178051    85.712865   -44.193706    0.0822531 
    5020    718839.53    299.96214   -221.08309    98.606663     85.09921    85.664358    221.08309  0.082734101 
    5040    718398.86    300.32825    -44.50614    98.650468    85.031502    85.641966     44.50614  0.083215103 
    5060    718623.85    300.92073    -406.7715    98.694274     84.99894    85.663568     406.7715  0.083696104 
    5080    719015.46    299.57231   -801.70341     98.73808    85.003868    85.667257    801.70341  0.084177105 
    5100    718701.32    299.56679   -648.88469    98.781885    84.955515    85.640571    648.88469  0.084658107 
    5120     718682.2    299.76512   -644.64748    98.825691    84.937055    85.618937    644.64748  0.085139108 
    5140    719496.39    298.44542   -382.32317    98.869497    84.949106    85.665801    382.32317  0.085620109 
    5160    720077.76    299.74785   -535.03591    98.913303    84.952468    85.693661    535.03591  0.086101111 
    5180    720379.37    300.16711   -344.24246    98.957108    84.995243    85.648478    344.24246  0.086582112 
    5200    720702.99     300.4983   -72.786269    99.000914    85.021775    85.622312    72.786269  0.087063114 
    5220       720806    299.62166   -227.20498     99.04472    85.033254    85.585121    227.20498  0.087544115 
    5240    721695.32    299.97618   -1067.1879    99.088525    85.066782    85.619073    1067.1879  0.088025116 
    5260    721669.55    300.15489    -549.2587    99.132331    85.075394     85.56952     549.2587  0.088506118 
    5280    721766.44    300.39596   -773.50584    99.176137     85.10522    85.513228    773.50584  0.088987119 
    5300    722658.65    299.16055   -906.23566    99.219943    85.119194    85.567084    906.23566   0.08946812 
    5320    722751.68    299.31633   -314.22154    99.263748    85.071893    85.587894    314.22154  0.089949122 
    5340    722506.01    299.60963   -123.97855    99.307554    85.064222    85.528774    123.97855  0.090430123 
    5360    722888.12    298.40818    -451.7182     99.35136    85.064465    85.536031     451.7182  0.090911125 
    5380    722765.59    298.95822   -500.93412    99.395165    85.043307    85.505109    500.93412  0.091392126 
    5400     722581.8    298.95624   -302.08223    99.438971     84.98156    85.507793    302.08223  0.091873127 
    5420    723483.74    299.36966   -936.88497    99.482777    84.947342    85.611298    936.88497  0.092354129 
    5440    723157.12    299.59538   -481.53365    99.526583    84.928891    85.553566    481.53365   0.09283513 
    5460    723274.74    299.05902   -496.53594    99.570388     84.92242    85.536354    496.53594  0.093316131 
    5480     723395.1    300.13725   -183.20701    99.614194    84.917009    85.518416    183.20701  0.093797133 
    5500    724269.09    299.11459   -553.56002       99.658    84.946271     85.55462    553.56002  0.094278134 
    5520    724175.71    299.09909    -481.6286    99.701805    84.903111     85.54947     481.6286  0.094759136 
    5540    724157.96    298.77048   -574.60139    99.745611    84.921488    85.491299    574.60139  0.095240137 
    5560    724284.73    298.53385   -524.90094    99.789417    84.956827    85.433178    524.90094  0.095721138 
    5580    724309.32    299.52253   -584.12192    99.833223    84.947578    85.407888    584.12192   0.09620214 
    5600    724064.11    299.57391   -307.25156    99.877028     84.89719    85.392179    307.25156  0.096683141 
    5620    724585.39    298.68833   -533.63782    99.920834    84.884187    85.429277    533.63782  0.097164142 
    5640    724449.14     300.9825   -269.91364     99.96464    84.842814    85.417417    269.91364  0.097645144 
    5660     724065.9    299.18679   -206.03374    100.00845    84.735772    85.442634    206.03374  0.098126145 
    5680    724498.93    298.56406   -692.92146    100.05225     84.76797    85.423843    692.92146  0.098607147 
    5700    724503.69    299.98149   -487.76307    100.09606     84.77994    85.374963    487.76307  0.099088148 
    5720    724633.84    300.68997   -292.63803    100.13986    84.766161    85.366821    292.63803  0.099569149 
    5740     725168.4    300.14488   -543.99877    100.18367    84.812084    85.346203    543.99877   0.10005015 
    5760    725067.98    300.57342   -498.11308    100.22747    84.865699      85.2432    498.11308   0.10053115 
    5780    725710.18    301.43467   -666.97311    100.27128    84.880979    85.266075    666.97311   0.10101215 
    5800    726526.92    301.41922   -513.99853    100.31509    84.874161    85.331616    513.99853   0.10149315 
    5820    726660.17    301.20497   -477.70163    100.35889    84.832089    85.352322    477.70163   0.10197416 
    5840    726285.87    300.69304   -225.39819     100.4027    84.682123    85.422146    225.39819   0.10245516 
    5860    727326.17    301.95472   -471.32619     100.4465    84.777582    85.410913    471.32619   0.10293616 
    5880    728036.88    299.51819   -781.40282    100.49031    84.825199    85.409133    781.40282   0.10341716 
    5900    727413.11    300.76213   -38.261082    100.53411    84.760279    85.364105    38.261082   0.10389816 
    5920    727752.96    300.06872   -314.19701    100.57792    84.768577    85.358434    314.19701   0.10437916 
    5940    727978.16    300.19232   -512.49809    100.62173    84.769668    85.346578    512.49809   0.10486016 
    5960    727565.41    300.37697   -730.84176    100.66553    84.702985     85.32819    730.84176   0.10534117 
    5980    726914.19    300.34204   -275.71367    100.70934    84.643418    85.274703    275.71367   0.10582217 
    6000    726574.53    300.45372   -206.26674    100.75314    84.624465    85.216881    206.26674   0.10630317 
    6020    726921.23    299.98906   -709.34449    100.79695    84.615496    85.229524    709.34449   0.10678417 
    6040    727756.13    299.80675   -328.02372    100.84075    84.647671    85.257928    328.02372   0.10726517 
    6060    728283.66    300.03486   -474.21373    100.88456    84.676702    85.253444    474.21373   0.10774617 
    6080    728003.55    299.74302   -347.30124    100.92837    84.684601     85.17572    347.30124   0.10822717 
    6100    728650.14     300.5345   -488.85102    100.97217    84.668444    85.230646    488.85102   0.10870818 
    6120    728801.94     299.1752   -416.38605    101.01598    84.701464    85.178215    416.38605   0.10918918 
    6140    729601.82    299.35576   -772.39531    101.05978     84.76722     85.16862    772.39531   0.10967018 
    6160    730022.67    300.39853   -714.11125    101.10359    84.770589    85.177439    714.11125   0.11015118 
    6180    729672.66     299.7532    -478.2644    101.14739    84.775954    85.094343     478.2644   0.11063218 
    6200    729863.17    299.83226   -498.41546     101.1912    84.796332    85.059267    498.41546   0.11111318 
    6220    730170.83    300.02752    -537.5919    101.23501      84.7674    85.087331     537.5919   0.11159418 
    6240    729745.84    299.97256   -246.79687    101.27881    84.677565    85.091205    246.79687   0.11207519 
    6260    730034.39    301.12816   -485.44414    101.32262     84.63346     85.13239    485.44414   0.11255619 
    6280    730260.86    300.02974   -685.19287    101.36642    84.640542    85.114876    685.19287   0.11303719 
    6300    730224.02     299.8164    -459.0541    101.41023    84.666481    85.047753     459.0541   0.11351819 
    6320    731651.37    300.63235   -600.74356    101.45403    84.706323    85.137136    600.74356   0.11399919 
    6340    732220.73    300.15297   -637.45858    101.49784    84.729307    85.143513    637.45858   0.11448019 
    6360    731159.81    300.60896    -235.9949    101.54165    84.621209    85.092031     235.9949   0.11496119 
    6380    731580.51    300.12118   -250.41491    101.58545    84.612721    85.112815    250.41491   0.11544219 
    6400    731564.28    299.29946   -569.44083    101.62926    84.616252     85.07069    569.44083    0.1159232 
    6420    731212.78    299.70333   -464.59136    101.67306    84.570504    85.039157    464.59136    0.1164042 
    6440    731692.56     298.9342    -733.7276    101.71687    84.568281    85.060544     733.7276    0.1168852 
    6460    731683.87    299.99031   -473.94481    101.76067    84.596002    84.995057    473.94481    0.1173662 
    6480    732586.66    300.09199   -607.85365    101.80448    84.610056    85.049181    607.85365    0.1178472 
    6500    733317.11    299.29709   -502.70057    101.84829    84.682513    85.024553    502.70057    0.1183282 
    6520    733187.81    300.53282   -631.38524    101.89209    84.705452    84.950002    631.38524    0.1188092 
    6540    733329.82    299.93566   -392.06435     101.9359    84.715539    84.919831    392.06435   0.11929021 
    6560    734417.49    299.92951   -185.37007     101.9797    84.756243    84.968426    185.37007   0.11977121 
    6580    734105.84    299.68209   -149.80514    102.02351    84.739799    84.912377    149.80514   0.12025221 
    6600     734477.8    298.90845   -766.30365    102.06731    84.712185     84.94662    766.30365   0.12073321 
    6620    734099.89    298.56672   -560.68218    102.11112    84.635649    84.943233    560.68218   0.12121421 
    6640     733207.8    300.46939   -215.79789    102.15493     84.54248    84.897085    215.79789   0.12169521 
    6660    734016.66    298.95633     -624.836    102.19873    84.550873     84.94588      624.836   0.12217621 
    6680    734505.14    300.61042   -574.80294    102.24254    84.544771    84.972123    574.80294   0.12265722 
    6700    734006.28    299.30156   -206.68268    102.28634    84.475556     84.94759    206.68268   0.12313822 
    6720    734084.62    299.78867     -242.346    102.33015    84.425583    84.970554      242.346   0.12361922 
    6740    734740.59    300.25576   -571.40825    102.37395    84.400606     85.03525    571.40825   0.12410022 
    6760    734690.02     299.0804   -282.86653    102.41776    84.404837    84.988768    282.86653   0.12458122 
    6780    736117.12    299.25548   -565.33781    102.46157    84.478939    85.042785    565.33781   0.12506222 
    6800    737695.84    299.43124   -1147.1492    102.50537      84.5496    85.117557    1147.1492   0.12554322 
    6820    737230.69    298.40022   -258.04312    102.54918    84.528882    85.048391    258.04312   0.12602423 
    6840    737877.16    300.47632   -442.14319    102.59298    84.574336    85.040894    442.14319   0.12650523 
    6860    738948.98    299.84771   -423.91238    102.63679    84.642303    85.059716    423.91238   0.12698623 
    6880    738262.53    299.08553   -11.901822    102.68059     84.57662    85.010413    11.901822   0.12746723 
    6900     738262.4    301.32028   -375.49521     102.7244    84.519811    85.031262    375.49521   0.12794823 
    6920    739376.19    300.34756   -947.90127    102.76821    84.570319    85.072407    947.90127   0.12842923 
    6940    739980.76     301.3397   -1019.8257    102.81201    84.628324    85.047358    1019.8257   0.12891023 
    6960    739189.74      300.905   -376.02326    102.85582    84.611379    84.937271    376.02326   0.12939123 
    6980    739644.27    300.63417   -520.78425    102.89962    84.658426    84.906106    520.78425   0.12987224 
    7000    738684.73    302.73885    60.083437    102.94343    84.568867    84.849635   -60.083437   0.13035324 
    7020     738453.2    302.16826    7.9662819    102.98723    84.557722    84.798136   -7.9662819   0.13083424 
    7040    738965.43    301.21726   -542.29169    103.03104    84.581307    84.797227    542.29169   0.13131524 
    7060     738745.8    301.08322   -713.11523    103.07485    84.507428    84.810076    713.11523   0.13179624 
    7080    739488.14    302.00616    -453.8318    103.11865    84.604907    84.761461     453.8318   0.13227724 
    7100    740207.76    299.53052   -444.93718    103.16246    84.674196    84.738521    444.93718   0.13275824 
    7120    740143.59    301.55585   -951.91136    103.20626    84.650001    84.719419    951.91136   0.13323925 
    7140       739596    299.32099   -370.07636    103.25007     84.59998    84.670855    370.07636   0.13372025 
    7160    739441.12    299.67172   -117.78655    103.29387    84.570128    84.647091    117.78655   0.13420125 
    7180    739815.98    300.39712   -714.31296    103.33768    84.594071    84.630143    714.31296   0.13468225 
    7200    740056.03    300.09462   -629.07276    103.38149    84.585171    84.630636    629.07276   0.13516325 
    7220    739256.73    300.81855   -87.593274    103.42529    84.493148    84.595457    87.593274   0.13564425 
    7240    739911.67    299.87931   -712.09734     103.4691    84.516924    84.610748    712.09734   0.13612525 
    7260    740298.85    300.11375   -714.31092     103.5129    84.547154    84.588943    714.31092   0.13660626 
    7280     739590.3    300.71443    151.70057    103.55671    84.479765    84.539616   -151.70057   0.13708726 
    7300    740095.16     299.2977   -111.80014    103.60051    84.497878    84.543427    111.80014   0.13756826 
    7320    740977.57    299.74482   -668.99761    103.64432    84.530207    84.576093    668.99761   0.13804926 
    7340    740852.14    301.31881   -680.49504    103.68813    84.536122    84.520137    680.49504   0.13853026 
    7360    741501.89    300.70614   -511.01903    103.73193    84.561658    84.533005    511.01903   0.13901126 
    7380    742021.11    300.21902   -518.79296    103.77574    84.562811    84.555337    518.79296   0.13949226 
    7400    741672.18    299.44726   -330.82464    103.81954    84.568146    84.474586    330.82464   0.13997327 
    7420    742359.35     300.9664   -239.47201    103.86335    84.553068    84.532263    239.47201   0.14045427 
    7440    743241.99    299.30718   -461.78602    103.90715    84.593557    84.556598    461.78602   0.14093527 
    7460    743019.09    299.52882   -419.01232    103.95096    84.561354    84.527795    419.01232   0.14141627 
    7480    742949.99    300.64197   -473.50501    103.99477    84.496517    84.549159    473.50501   0.14189727 
    7500     742396.4    299.87289   -476.37321    104.03857    84.381622    84.565575    476.37321   0.14237827 
    7520    743166.54     299.3625   -792.73691    104.08238    84.375247    84.624066    792.73691   0.14285927 
    7540    743350.33    299.06467   -467.69301    104.12618    84.356507     84.62818    467.69301   0.14334027 
    7560     742815.1    299.19289   -413.58645    104.16999    84.367306    84.520864    413.58645   0.14382128 
    7580    742801.25    299.66096   -361.10131    104.21379    84.355597    84.495486    361.10131   0.14430228 
    7600    742481.39    299.82108   -451.78801     104.2576    84.321004     84.45825    451.78801   0.14478328 
    7620    742206.43    299.23424   -152.72669    104.30141    84.332033    84.380478    152.72669   0.14526428 
    7640    743042.54    299.64401   -611.29367    104.34521    84.331084    84.441021    611.29367   0.14574528 
    7660    742813.88    299.54297   -462.86668    104.38902    84.332959    84.377735    462.86668   0.14622628 
    7680    742879.34    298.74077   -473.42906    104.43282    84.364407    84.318332    473.42906   0.14670728 
    7700    743303.89    298.48032   -595.01899    104.47663    84.366235    84.329318    595.01899   0.14718829 
    7720    743026.83    299.92329   -588.52027    104.52043    84.321231    84.307528    588.52027   0.14766929 
    7740    742165.22    298.52207    -144.1714    104.56424    84.225784    84.269875     144.1714   0.14815029 
    7760    742659.72    299.51348   -450.85138    104.60805    84.229402    84.287091    450.85138   0.14863129 
    7780    742842.35    299.11248   -370.10262    104.65185    84.218607     84.28333    370.10262   0.14911229 
    7800    742638.67    300.88571   -27.425153    104.69566    84.219774    84.223798    27.425153   0.14959329 
    7820    743187.55    300.57068   -557.84363    104.73946    84.276397     84.19419    557.84363   0.15007429 
    7840    743366.45     299.8569   -591.30659    104.78327    84.255961    84.199668    591.30659    0.1505553 
    7860    743803.16    301.61553   -643.10105    104.82707     84.20394    84.265954    643.10105    0.1510363 
    7880    743908.98    300.58984    -330.9578    104.87088    84.161808    84.284912     330.9578    0.1515173 
    7900    744012.52    300.68876   -150.48038    104.91469    84.150896    84.272371    150.48038    0.1519983 
    7920    744365.68    301.62832    -390.8742    104.95849    84.234692    84.193346     390.8742    0.1524793 
    7940    745073.37    300.66131   -738.91307     105.0023    84.316036    84.156965    738.91307    0.1529603 
    7960    745456.69    302.02719   -723.15625     105.0461    84.366093     84.11521    723.15625    0.1534413 
    7980    745758.87    301.59951   -819.58379    105.08991    84.368127    84.112203    819.58379   0.15392231 
    8000    745998.28    300.30108   -103.30189    105.13371    84.333012    84.139167    103.30189   0.15440331 
    8020    746370.97    301.36938   -146.86664    105.17752    84.320259    84.158867    146.86664   0.15488431 
    8040    746696.21    301.83248   -363.40545    105.22133    84.364967    84.115888    363.40545   0.15536531 
    8060    746757.66    301.35206   -726.17574    105.26513    84.362298    84.090464    726.17574   0.15584631 
    8080    746516.68    299.80902   -428.92301    105.30894    84.377894    84.012829    428.92301   0.15632731 
    8100    746597.85    301.39474   -376.39799    105.35274    84.302074    84.062564    376.39799   0.15680831 
    8120    747293.04    300.45663    -391.5741    105.39655    84.274371    84.133514     391.5741   0.15728931 
    8140    747682.71    301.09942   -538.50071    105.44035    84.281554    84.135243    538.50071   0.15777032 
    8160    747782.38    300.49765   -597.90605    105.48416    84.258395    84.134631    597.90605   0.15825132 
    8180     747884.1    300.11321   -445.66172    105.52797    84.199762    84.169717    445.66172   0.15873232 
    8200    748107.01    299.72301   -288.84425    105.57177    84.222846    84.136803    288.84425   0.15921332 
    8220    747787.43    299.86234   -345.94039    105.61558    84.194919    84.093862    345.94039   0.15969432 
    8240    748378.41    300.92765   -292.88715    105.65938    84.273723    84.046765    292.88715   0.16017532 
    8260    748609.37    299.05696   -316.23966    105.70319    84.269141    84.042431    316.23966   0.16065632 
    8280    748720.79    300.69405    -616.3561    105.74699    84.228874    84.060287     616.3561   0.16113733 
    8300    748967.89    298.96588    -717.1668     105.7908    84.217299    84.064763     717.1668   0.16161833 
    8320    748703.43    300.25866   -496.34917    105.83461    84.212672    84.004911    496.34917   0.16209933 
    8340    748645.25    300.42524    -332.5439    105.87841    84.195894    83.980362     332.5439   0.16258033 
    8360    749510.82    300.25314   -342.87642    105.92222     84.19963    84.038959    342.87642   0.16306133 
    8380    749600.77    301.13162   -464.20539    105.96602    84.148548    84.065299    464.20539   0.16354233 
    8400    749571.16    299.04917   -342.72562    106.00983    84.156982    84.018821    342.72562   0.16402333 
    8420    750211.02    301.30402   -482.44135    106.05363    84.167337    84.045468    482.44135   0.16450434 
    8440    750211.16     298.5319    -358.7949    106.09744    84.096659    84.081388     358.7949   0.16498534 
    8460    748730.01    299.40167   -357.92808    106.14125    83.972194    84.005083    357.92808   0.16546634 
    8480    749310.45    298.99907   -937.55865    106.18505    83.938137     84.06962    937.55865   0.16594734 
    8500    749158.53    298.04986   -577.17026    106.22886    83.842072     84.11418    577.17026   0.16642834 
    8520    749320.08    299.31891   -237.28788    106.27266    83.769103    84.170895    237.28788   0.16690934 
    8540    749591.37    299.19258   -209.91981    106.31647    83.784191    84.151518    209.91981   0.16739034 
    8560    749636.78    298.69845   -583.94727    106.36027    83.768315    84.137898    583.94727   0.16787134 
    8580     749192.6    299.47458   -324.44322    106.40408    83.672013    84.150167    324.44322   0.16835235 
    8600    749229.98     299.3835   -308.74435    106.44789    83.655352    84.136488    308.74435   0.16883335 
    8620    749833.31    298.36035   -434.21076    106.49169    83.667959     84.15692    434.21076   0.16931435 
    8640    750186.92    300.62394   -715.31747     106.5355    83.624726    84.205497    715.31747   0.16979535 
    8660     750734.9    298.93229   -579.06051     106.5793    83.648443    84.208489    579.06051   0.17027635 
    8680     750917.9    300.51003   -400.59755    106.62311    83.612187    84.230919    400.59755   0.17075735 
    8700    750987.71    299.50886   -188.67355    106.66691    83.578158    84.238437    188.67355   0.17123835 
    8720    750812.92    299.56373   -272.47769    106.71072     83.60819     84.15402    272.47769   0.17171936 
    8740    751258.04    300.37915   -384.88738    106.75453     83.57695    84.200819    384.88738   0.17220036 
    8760    751907.81    299.76653   -687.79721    106.79833    83.574919    84.241126    687.79721   0.17268136 
    8780    751833.35    299.74558   -714.08984    106.84214    83.580961    84.192162    714.08984   0.17316236 
    8800    751590.83    300.46569   -335.68482    106.88594    83.560538    84.151073    335.68482   0.17364336 
    8820    751986.53    299.91318   -290.79708    106.92975    83.568209    84.153159    290.79708   0.17412436 
    8840    752977.11    300.21071   -314.55687    106.97355    83.560012    84.237769    314.55687   0.17460536 
    8860    753447.02    298.80252   -320.02856    107.01736    83.568922    84.246853    320.02856   0.17508637 
    8880       753509    299.85719   -247.94873    107.06117    83.646086    84.141617    247.94873   0.17556737 
    8900    753487.36     300.3979   -246.95775    107.10497    83.649909    84.100944    246.95775   0.17604837 
    8920    754106.83    299.55641   -487.70471    107.14878    83.689587    84.095786    487.70471   0.17652937 
    8940    753997.25    300.13889   -643.11246    107.19258    83.762279    83.976263    643.11246   0.17701037 
    8960    753841.22    299.95328    -373.2166    107.23639    83.734409    83.952521     373.2166   0.17749137 
    8980    754320.32    300.26918   -489.72257    107.28019    83.737526     83.96845    489.72257   0.17797237 
    9000    754422.91    301.27233    -230.9035      107.324    83.721547    83.961612     230.9035   0.17845338 
    9020    754930.78    300.32132   -402.66241    107.36781    83.747483    83.957847    402.66241   0.17893438 
    9040    754435.41    300.04846   -357.38888    107.41161    83.659293    83.956948    357.38888   0.17941538 
    9060    754041.19    299.46943    -353.0206    107.45542    83.614845    83.923457     353.0206   0.17989638 
    9080    754006.79    299.44306   -297.79445    107.49922    83.626698    83.873542    297.79445   0.18037738 
    9100     753973.3    299.62985   -514.68282    107.54303    83.537838    83.924832    514.68282   0.18085838 
    9120    754068.76     299.9669   -468.32387    107.58683    83.496142    83.943179    468.32387   0.18133938 
    9140    755016.93      297.891   -771.53405    107.63064    83.591036    83.919147    771.53405   0.18182038 
    9160    755212.62    300.30641   -274.27306    107.67445     83.53007    83.967988    274.27306   0.18230139 
    9180    756111.98    299.65177   -480.87075    107.71825    83.519643    84.044287    480.87075   0.18278239 
    9200    756518.07    299.75484   -392.89358    107.76206    83.539044    84.035721    392.89358   0.18326339 
    9220    756820.59    300.41663   -495.53763    107.80586    83.520355    84.053969    495.53763   0.18374439 
    9240    756801.53    299.20334   -181.50779    107.84967    83.516607    84.021484    181.50779   0.18422539 
    9260    757650.91    299.90401    -504.6343    107.89347    83.579308    84.018554     504.6343   0.18470639 
    9280    757585.08    299.10595   -533.50921    107.93728    83.595857    83.960533    533.50921   0.18518739 
    9300    757495.14    299.35032    -463.2149    107.98109    83.609419    83.902896     463.2149    0.1856684 
    9320    758336.84    299.73743   -471.35407    108.02489    83.655229    83.916087    471.35407    0.1861494 
    9340    758468.94    299.37881   -286.23327     108.0687    83.679966    83.871882    286.23327    0.1866304 
    9360    758419.56    299.51559   -420.44529     108.1125     83.72928    83.783066    420.44529    0.1871114 
    9380    758479.04    300.68461    -352.6676    108.15631    83.767301    83.717684     352.6676    0.1875924 
    9400    758807.32    299.88793   -763.68099    108.20011    83.757957     83.72935    763.68099    0.1880734 
    9420    758684.76    299.90086   -615.86064    108.24392    83.679382    83.760525    615.86064    0.1885544 
    9440    759175.46    302.36877   -178.46998    108.28773    83.706114    83.754036    178.46998   0.18903541 
    9460    759813.13     301.6509   -352.47832    108.33153    83.786736    83.709865    352.47832   0.18951641 
    9480     759964.5    301.42575   -375.15216    108.37534    83.737516    83.741893    375.15216   0.18999741 
    9500    759940.35    302.95123   -367.09898    108.41914    83.729198    83.713713    367.09898   0.19047841 
    9520    760299.11    300.37569   -785.34124    108.46295    83.735182    83.713424    785.34124   0.19095941 
    9540    760734.89     301.8997   -436.92729    108.50675    83.770433    83.692358    436.92729   0.19144041 
    9560    761066.01    301.76992   -466.19554    108.55056    83.736634    83.728779    466.19554   0.19192141 
    9580    761153.41    300.27695   -503.86551    108.59437    83.708533    83.732714    503.86551   0.19240242 
    9600    760917.41    301.06672   -249.11555    108.63817    83.679109    83.702422    249.11555   0.19288342 
    9620    760548.23    300.51911   -374.92552    108.68198    83.626615    83.680585    374.92552   0.19336442 
    9640    760317.64    301.17581   -581.21017    108.72578    83.569624    83.678537    581.21017   0.19384542 
    9660    760466.17    300.43679    -464.1057    108.76959     83.58458    83.646206     464.1057   0.19432642 
    9680    760178.27    300.09265   -107.99903    108.81339    83.523001    83.642501    107.99903   0.19480742 
    9700    760489.53    300.42216   -362.51078     108.8572    83.557494    83.608547    362.51078   0.19528842 
    9720    760961.48    301.02454   -540.71239    108.90101    83.622296    83.561975    540.71239   0.19576942 
    9740    760540.29    299.41645   -369.50221    108.94481    83.520359    83.584032    369.50221   0.19625043 
    9760    761667.56    301.04891   -546.83027    108.98862    83.629004    83.565572    546.83027   0.19673143 
    9780    762295.12    300.27797   -523.75306    109.03242    83.698586    83.531322    523.75306   0.19721243 
    9800    762114.93    301.04083   -391.07861    109.07623    83.651692    83.524835    391.07861   0.19769343 
    9820    762187.76    299.47792    1.7300571    109.12003    83.627668     83.52327   -1.7300571   0.19817443 
    9840    763420.61    300.44205   -139.36543    109.16384    83.669134    83.583355    139.36543   0.19865543 
    9860    764263.02    299.86717   -394.89319    109.20765    83.704341    83.606843    394.89319   0.19913643 
    9880    764893.51    299.66885   -418.30795    109.25145    83.731695    83.614939    418.30795   0.19961744 
    9900    765296.33     298.4321   -578.04955    109.29526    83.720127    83.636998    578.04955   0.20009844 
    9920    765770.13    298.48684   -757.38079    109.33906     83.69961    83.675755    757.38079   0.20057944 
    9940    765949.01    300.51909   -490.93827    109.38287    83.657889    83.703506    490.93827   0.20106044 
    9960    765930.03    299.63859   -404.07158    109.42667    83.584398    83.741489    404.07158   0.20154144 
    9980    765873.61    298.62246   -280.44116    109.47048    83.581624    83.704591    280.44116   0.20202244 
   10000    766463.21    300.37003   -358.60178    109.51429    83.601845    83.715269    358.60178   0.20250344 
   10020    765899.27    299.44222   -151.40496    109.55809    83.542796     83.67933    151.40496   0.20298445 
   10040    765178.45    300.43621   -315.67096     109.6019    83.516202    83.593772    315.67096   0.20346545 
   10060    765713.63    301.37584   -500.57399     109.6457    83.555923    83.579068    500.57399   0.20394645 
   10080    765740.34    300.24899    -515.2347    109.68951    83.545822    83.558704     515.2347   0.20442745 
   10100    766100.93     301.9139   -516.77404    109.73331    83.585783    83.524729    516.77404   0.20490845 
   10120    766713.58    301.25422    -673.6237    109.77712    83.620476      83.5235     673.6237   0.20538945 
   10140    766414.36    302.59791    103.78487    109.82093    83.596907    83.481131   -103.78487   0.20587045 
   10160    767358.51    301.82626    -21.63227    109.86473    83.644881    83.502725     21.63227   0.20635146 
   10180    767887.94    302.38912   -381.42083    109.90854     83.62763    83.544264    381.42083   0.20683246 
   10200    768069.79    301.44521    -655.0153    109.95234    83.634292    83.524102     655.0153   0.20731346 
   10220    768645.14    301.65971    -725.3995    109.99615    83.688905    83.498855     725.3995   0.20779446 
   10240    768898.86    301.07686   -641.25182    110.03995    83.653729    83.528275    641.25182   0.20827546 
   10260    768373.76    300.83829   -105.52811    110.08376    83.591379    83.500251    105.52811   0.20875646 
   10280     769008.8    300.13812   -147.30119    110.12757    83.625469    83.501966    147.30119   0.20923746 
   10300     769483.8    300.94581   -21.693083    110.17137    83.591912     83.55385    21.693083   0.20971846 
   10320    769877.73    301.30328    122.18502    110.21518    83.629597    83.525744   -122.18502   0.21019947 
   10340     770277.4    301.03538   -489.21771    110.25898    83.609288    83.556194    489.21771   0.21068047 
   10360    769507.84     299.7611   -701.42703    110.30279    83.496031    83.552747    701.42703   0.21116147 
   10380    769167.89    300.18778   -706.97544    110.34659    83.497425    83.481286    706.97544   0.21164247 
   10400    769027.14    301.11366   -529.72474     110.3904    83.460334    83.469967    529.72474   0.21212347 
   10420    769026.12    299.48477   -401.61219    110.43421    83.380017    83.517118    401.61219   0.21260447 
   10440    768235.45    300.14777    135.90686    110.47801    83.343703    83.434507   -135.90686   0.21308547 
   10460    768397.28    300.14837   -379.73021    110.52182    83.307195    83.455563    379.73021   0.21356648 
   10480    767901.08    301.43273   -229.14386    110.56562    83.239371    83.436557    229.14386   0.21404748 
   10500    768228.06     300.7577   -540.39853    110.60943    83.299349    83.378949    540.39853   0.21452848 
   10520    768679.23    299.46851   -556.82257    110.65323    83.270984    83.423295    556.82257   0.21500948 
   10540     768693.4    299.66145    -727.9043    110.69704    83.278084    83.384709     727.9043   0.21549048 
   10560    768706.79    299.25411   -383.69967    110.74085    83.243156    83.388151    383.69967   0.21597148 
   10580    769417.83    299.73722   -552.90145    110.78465    83.257651    83.417755    552.90145   0.21645248 
   10600    769235.44    299.83222   -168.13478    110.82846    83.198996     83.42379    168.13478   0.21693349 
   10620    769650.03    299.59876    -259.2587    110.87226    83.189257    83.445541     259.2587   0.21741449 
   10640    769868.78    300.56399   -549.07945    110.91607    83.201164    83.424351    549.07945   0.21789549 
   10660    769522.48    299.35309   -374.19724    110.95987     83.19805    83.357026    374.19724   0.21837649 
   10680     770099.8    299.59353   -285.44994    111.00368    83.235179    83.349446    285.44994   0.21885749 
   10700    770545.02     299.3243   -256.08062    111.04749    83.285339    83.314527    256.08062   0.21933849 
   10720    770439.06    299.17852   -270.36991    111.09129    83.316321    83.239257    270.36991   0.21981949 
   10740    770958.33      299.191   -371.73803     111.1351    83.303346    83.275496    371.73803    0.2203005 
   10760    771325.42    298.70183   -507.80385     111.1789    83.366721    83.219009    507.80385    0.2207815 
   10780    771416.09    300.18344   -361.30463    111.22271    83.317298    83.245363    361.30463    0.2212625 
   10800    772043.26    300.33443   -242.83698    111.26651    83.324844      83.2727    242.83698    0.2217435 
   10820     772359.9    300.28409   -163.89651    111.31032    83.352457     83.24648    163.89651    0.2222245 
   10840    772957.58    300.33124   -279.25269    111.35413    83.370901    83.259703    279.25269    0.2227055 
   10860    772842.44    300.08922   -494.78886    111.39793    83.326969    83.258436    494.78886    0.2231865 
   10880    772869.97    300.41224    -369.4371    111.44174    83.335336    83.220318     369.4371    0.2236675 
   10900    772809.72      301.184   -359.37975    111.48554    83.300128    83.216292    359.37975   0.22414851 
   10920    773601.09    300.06105   -729.45816    111.52935    83.278548    83.290365    729.45816   0.22462951 
   10940    773072.81    302.01426   -147.11644    111.57315    83.218561    83.260782    147.11644   0.22511051 
   10960    773262.18    301.36483   -212.97599    111.61696    83.155969    83.311154    212.97599   0.22559151 
   10980    773743.27    301.87414   -423.01765    111.66077    83.128535    83.357783    423.01765   0.22607251 
   11000     774295.3    302.13882   -519.97273    111.70457    83.165306    83.347674    519.97273   0.22655351 
   11020    774275.79    302.33913   -329.65694    111.74838    83.148021    83.330222    329.65694   0.22703451 
   11040    775141.41    301.35483   -448.31535    111.79218    83.141142    83.397592    448.31535   0.22751552 
   11060    775525.33    300.57875   -159.16949    111.83599    83.133195     83.41419    159.16949   0.22799652 
   11080    775803.24    300.19364    -447.6115    111.87979    83.125345    83.419287     447.6115   0.22847752 
   11100    776073.39    299.21567   -341.27054     111.9236    83.130471     83.41053    341.27054   0.22895852 
   11120    775785.26    300.60399   -327.57839    111.96741    83.145009    83.332368    327.57839   0.22943952 
   11140    776511.87    299.75491   -282.32586    112.01121    83.129578    83.393275    282.32586   0.22992052 
   11160    776441.17    300.84044   -200.27533    112.05502    83.090423    83.392363    200.27533   0.23040152 
   11180    776529.69    300.27043     -439.922    112.09882    83.138468    83.321101      439.922   0.23088253 
   11200     776513.4    300.13992   -490.68277    112.14263    83.130811    83.294477    490.68277   0.23136353 
   11220    776369.97    300.47595   -198.09403    112.18643    83.090423    83.287038    198.09403   0.23184453 
   11240    776198.27    299.58304    -39.94333    112.23024     83.10013    83.226394     39.94333   0.23232553 
   11260    776806.84    299.91354   -383.70363    112.27405    83.120756    83.238488    383.70363   0.23280653 
   11280    776668.27    300.06165   -470.23668    112.31785    83.090362    83.221612    470.23668   0.23328753 
   11300    777127.04    298.90872   -586.90658    112.36166     83.13321    83.195404    586.90658   0.23376853 
   11320    777092.51    300.81416    -351.8235    112.40546    83.183433    83.109078     351.8235   0.23424954 
   11340    776553.03    300.50752   -341.41278    112.44927    83.179613    83.022842    341.41278   0.23473054 
   11360    775868.76    299.05311   -55.654963    112.49307    83.165144    82.931809    55.654963   0.23521154 
   11380    775342.81    300.44967   -51.119716    112.53688     83.11425    82.894058    51.119716   0.23569254 
   11400    775620.76    299.25248   -201.49087    112.58069    83.098577    82.907143    201.49087   0.23617354 
   11420     775828.3    299.09252   -457.37124    112.62449    83.169164    82.826715    457.37124   0.23665454 
   11440    775864.27    299.80595   -645.41601     112.6683    83.154475    82.812977    645.41601   0.23713554 
   11460    776320.14    299.82624   -539.81068     112.7121     83.17983    82.804182    539.81068   0.23761654 
   11480    776852.02    299.52274   -520.61227    112.75591    83.226125    82.782649    520.61227   0.23809755 
   11500    776387.64    299.02428   -94.789383    112.79971    83.111488    82.815105    94.789383   0.23857855 
   11520    776779.49    299.05214   -256.74327    112.84352    83.078083     82.85804    256.74327   0.23905955 
   11540    777692.66     298.9075   -639.31429    112.88733    83.151867    82.849675    639.31429   0.23954055 
   11560    777498.81    299.05281   -305.50813    112.93113    83.153965    82.794806    305.50813   0.24002155 
   11580    776832.66    298.90761   -143.71556    112.97494    83.170892    82.674964    143.71556   0.24050255 
   11600    777299.03     299.2599   -270.44482    113.01874    83.178624    82.684846    270.44482   0.24098355 
   11620    777838.51     299.4742   -222.01057    113.06255    83.180676    82.708135    222.01057   0.24146456 
   11640    777868.37    298.76079   -308.07569    113.10635    83.184868     82.67511    308.07569   0.24194556 
   11660    778214.69    299.60927   -605.27397    113.15016    83.177352    82.687367    605.27397   0.24242656 
   11680    777840.59     299.4597   -669.59299    113.19397    83.157767    82.635091    669.59299   0.24290756 
   11700    777439.14    298.28409    -285.2881    113.23777    83.137646    82.580473     285.2881   0.24338856 
   11720    777601.14    298.82616   -293.74863    113.28158    83.131385    82.571959    293.74863   0.24386956 
   11740     777493.3    299.65794    -292.1366    113.32538    83.099204    82.560554     292.1366   0.24435056 
   11760    777282.94    298.81959   -219.28076    113.36919    83.053305     82.55192    219.28076   0.24483157 
   11780     778660.9    301.23051   -444.30816    113.41299    83.160946    82.559324    444.30816   0.24531257 
   11800    778914.22    300.12037   -630.72594     113.4568    83.227576    82.488206    630.72594   0.24579357 
   11820    779052.26    300.39974   -452.75968    113.50061    83.252549    82.446244    452.75968   0.24627457 
   11840    779392.43     301.5091   -248.69641    113.54441    83.287376    82.415945    248.69641   0.24675557 
   11860    778756.05     300.9244    86.883181    113.58822    83.204634    82.398752   -86.883181   0.24723657 
   11880    779634.38    301.71701    -311.2123    113.63202    83.218459    82.446187     311.2123   0.24771757 
   11900    780156.42    299.46663   -385.73187    113.67583    83.223106    82.464995    385.73187   0.24819858 
   11920    779939.32    300.28923   -494.15539    113.71963    83.196344    82.436799    494.15539   0.24867958 
   11940    779559.83    300.53283   -410.70979    113.76344    83.175925    82.385181    410.70979   0.24916058 
   11960    780007.55    300.23362   -435.33584    113.80725    83.174146     82.40253    435.33584   0.24964158 
   11980    780015.08    300.06294   -206.70898    113.85105    83.162173    82.383478    206.70898   0.25012258 
   12000    780376.63    299.72081   -446.65375    113.89486    83.246276    82.306726    446.65375   0.25060358 
   12020     780583.7    301.35366   -331.58503    113.93866    83.188645    82.353927    331.58503   0.25108458 
   12040    780911.08    300.09867   -110.24969    113.98247    83.183597    82.361801    110.24969   0.25156558 
   12060    781120.02    300.69414   -51.461055    114.02627    83.179292    82.356449    51.461055   0.25204659 
   12080    781447.42    299.80713   -322.04407    114.07008    83.123549    82.414559    322.04407   0.25252759 
   12100    781786.24     301.0567   -716.31926    114.11389    83.120311    82.421852    716.31926   0.25300859 
   12120    782732.68    299.23391   -973.35221    114.15769     83.13165    82.478716    973.35221   0.25348959 
   12140    782601.99     299.9661   -225.19123     114.2015     83.07158    82.492921    225.19123   0.25397059 
   12160    782850.85    300.70444    71.888172     114.2453    83.102981    82.456344   -71.888172   0.25445159 
   12180     783536.9    299.90005   -127.67693    114.28911    83.105437    82.494534    127.67693   0.25493259 
   12200    783523.04    299.51324   -198.63538    114.33291    83.006232    82.560022    198.63538    0.2554136 
   12220    784157.33    299.96562   -574.99616    114.37672    83.003591    82.597839    574.99616    0.2558946 
   12240     783946.9    299.48779   -279.19349    114.42053    82.940576    82.606774    279.19349    0.2563756 
   12260    784036.67    299.20295   -388.81895    114.46433    82.903296    82.621753    388.81895    0.2568566 
   12280    784408.57    298.51047   -487.68253    114.50814    82.858469    82.674023    487.68253    0.2573376 
   12300    784197.43    299.34261   -615.15264    114.55194    82.815673    82.662858    615.15264    0.2578186 
   12320    783881.47    299.69879   -398.80917    114.59575    82.801762    82.611844    398.80917    0.2582996 
   12340    784049.11    300.10133   -4.7741891    114.63955    82.846402    82.553431    4.7741891   0.25878061 
   12360    784028.84    300.23096    4.4271675    114.68336    82.803364    82.562655   -4.4271675   0.25926161 
   12380    784106.26    300.98697   -296.00105    114.72717      82.8044    82.538247    296.00105   0.25974261 
   12400    783857.42    300.59411    -450.9697    114.77097    82.670812     82.61384     450.9697   0.26022361 
   12420    784163.44    300.11779    -419.5162    114.81478    82.654569    82.630797     419.5162   0.26070461 
   12440    785356.19    300.37815   -487.61837    114.85858    82.670254    82.709224    487.61837   0.26118561 
   12460    786459.92    300.49926   -458.61541    114.90239    82.662381    82.801772    458.61541   0.26166661 
   12480    786545.55    299.78809   0.11143671    114.94619     82.61601     82.82569  -0.11143671   0.26214762 
   12500    787167.91    299.62532   -137.70553       114.99    82.595242    82.880485    137.70553   0.26262862 
   12520    787475.09    300.48598   -535.23412    115.03381    82.566767    82.909836    535.23412   0.26310962 
   12540    787830.82    299.92797   -299.73559    115.07761    82.582883    82.899534    299.73559   0.26359062 
   12560    788108.72    301.14377   -502.33927    115.12142    82.595223    82.884835    502.33927   0.26407162 
   12580    788070.21    300.57411   -286.81127    115.16522    82.620321    82.824091    286.81127   0.26455262 
   12600    788916.17    300.26743    -429.7278    115.20903    82.658418    82.843275     429.7278   0.26503362 
   12620    789321.77    300.94514    -278.3066    115.25283    82.691092    82.821623     278.3066   0.26551462 
   12640    789072.21    299.64725    -147.4635    115.29664    82.707963    82.747099     147.4635   0.26599563 
   12660    789129.85     299.3803   -330.16835    115.34045    82.678831    82.750861    330.16835   0.26647663 
   12680    789361.85     299.8379   -225.20121    115.38425    82.623273    82.799403    225.20121   0.26695763 
   12700    789328.02    299.69898   -288.27582    115.42806    82.567027    82.820813    288.27582   0.26743863 
   12720    789300.81    299.14097   -603.00743    115.47186    82.512359    82.841389    603.00743   0.26791963 
   12740    788528.24    299.75417   -169.68366    115.51567    82.429348    82.812232    169.68366   0.26840063 
   12760    789283.93    299.30581     -79.0385    115.55947    82.447842    82.841587      79.0385   0.26888163 
   12780    790049.11      299.602   -322.93845    115.60328    82.441049    82.897307    322.93845   0.26936264 
   12800    790436.63    299.70165   -585.30016    115.64709    82.443361    82.904228    585.30016   0.26984364 
   12820     790920.7    297.83986   -396.41364    115.69089    82.406867    82.960311    396.41364   0.27032464 
   12840    791754.56    298.89949   -207.66398     115.7347     82.35197    83.071681    207.66398   0.27080564 
   12860    791830.23    299.38264   -289.87048     115.7785    82.279837    83.120994    289.87048   0.27128664 
   12880    791616.67    298.56005   -270.78333    115.82231    82.283161    83.063791    270.78333   0.27176764 
   12900    791507.92    298.53199   -340.15415    115.86611    82.235046    83.069556    340.15415   0.27224864 
   12920    791413.51    299.36527   -401.46168    115.90992    82.240214    83.023038    401.46168   0.27272965 
   12940    791355.16    300.50053   -237.30082    115.95373    82.303421    82.921823    237.30082   0.27321065 
   12960    791290.52    299.77702   -247.12643    115.99753    82.343368    82.843529    247.12643   0.27369165 
   12980     791050.8    299.90636   -309.96669    116.04134    82.298561     82.83224    309.96669   0.27417265 
   13000    791154.94    299.74334   -401.77721    116.08514    82.285585    82.824942    401.77721   0.27465365 
   13020    791065.07    299.67218   -361.07376    116.12895    82.294634    82.775192    361.07376   0.27513465 
   13040    791422.16    299.83889   -87.583285    116.17275     82.30979    82.766087    87.583285   0.27561565 
[...]
   36740    1007880.7    300.78936   -115.08658    168.08253    77.257504    77.615038    115.08658   0.84560229 
   36760    1008897.3    300.44776   -245.22705    168.12633    77.305627    77.624733    245.22705   0.84608329 
   36780    1008445.6    299.83542   -197.19542    168.17014    77.281624    77.593863    197.19542   0.84656429 
   36800      1009260    299.78944   -241.01883    168.21394    77.295369    77.622497    241.01883   0.84704529 
   36820    1009690.1    299.38408   -284.49264    168.25775    77.295145    77.635581    284.49264   0.84752629 
   36840    1010201.7    299.59866   -215.38384    168.30155    77.334575    77.615105    215.38384   0.84800729 
   36860    1011706.4    298.09295   -237.74008    168.34536    77.372474    77.672426    237.74008   0.84848829 
   36880    1011359.8    299.73608   -226.70532    168.38917    77.361877    77.636248    226.70532    0.8489693 
   36900    1010575.9    298.83418     -230.226    168.43297    77.300156    77.617821      230.226    0.8494503 
   36920    1011991.5    299.31712   -269.55582    168.47678    77.294762    77.711763    269.55582    0.8499313 
   36940    1012264.9    299.92063   -184.57268    168.52058    77.290957    77.716378    184.57268    0.8504123 
   36960    1011867.1    299.67256   -17.750129    168.56439    77.291104    77.665501    17.750129    0.8508933 
   36980    1012405.2    299.32107   -212.43285    168.60819    77.271323    77.706498    212.43285    0.8513743 
   37000    1012036.8    300.20918   -175.36422      168.652    77.258276     77.67116    175.36422    0.8518553 
   37020    1012387.6    299.54315   -196.78179    168.69581    77.230658    77.705685    196.78179   0.85233631 
   37040    1012813.8    299.53195   -222.84923    168.73961    77.209386    77.739632    222.84923   0.85281731 
   37060    1012089.2    300.64056   -99.516281    168.78342    77.170285    77.703205    99.516281   0.85329831 
   37080      1011901    298.65003    13.530047    168.82722    77.196806    77.641911   -13.530047   0.85377931 
   37100    1012553.7      301.159   -225.07502    168.87103    77.211389    77.657169    225.07502   0.85426031 
   37120    1012383.7    299.96096   -373.45649    168.91483    77.232063    77.603213    373.45649   0.85474131 
   37140    1013033.1    300.54718   -183.31138    168.95864    77.253716    77.611102    183.31138   0.85522231 
   37160    1013854.5    300.16885   -227.59144    169.00245    77.209302    77.698572    227.59144   0.85570332 
   37180    1014323.4    300.77443   -104.68088    169.04625    77.208068    77.715602    104.68088   0.85618432 
   37200    1015195.9    300.66097   -353.18233    169.09006    77.241166    77.728978    353.18233   0.85666532 
   37220    1015332.2    301.16685   -123.63875    169.13386    77.224005    77.736553    123.63875   0.85714632 
   37240    1016029.1    301.20138   -203.84619    169.17767    77.289057    77.704306    203.84619   0.85762732 
   37260    1017176.4    302.36544   -402.71802    169.22147    77.317358    77.743449    402.71802   0.85810832 
   37280    1015182.1    300.94577    29.831666    169.26528    77.189312    77.699622   -29.831666   0.85858932 
   37300    1015645.9    301.81063   -63.612601    169.30909     77.18773    77.716602    63.612601   0.85907032 
   37320    1016838.8    300.24427   -485.38911    169.35289    77.214552    77.760735    485.38911   0.85955133 
   37340    1015621.6    300.89768   -268.25338     169.3967    77.109158    77.753695    268.25338   0.86003233 
   37360    1015962.8    300.68264   -61.232042     169.4405    77.091523    77.777493    61.232042   0.86051333 
   37380    1017480.4     299.4326   -140.27845    169.48431    77.187409    77.776807    140.27845   0.86099433 
   37400    1017797.4     300.3659   -247.20021    169.52811    77.196654    77.771621    247.20021   0.86147533 
   37420      1018303    299.55349   -315.63165    169.57192    77.248898    77.737538    315.63165   0.86195633 
   37440    1018544.8    299.75519   -324.66678    169.61573    77.249127    77.735685    324.66678   0.86243733 
   37460    1017616.3     300.4811   -62.387907    169.65953    77.116213    77.778593    62.387907   0.86291834 
   37480    1018278.7    298.09001    145.45917    169.70334    77.161613    77.763353   -145.45917   0.86339934 
   37500    1018627.6    299.76171   -340.12851    169.74714    77.168859    77.762617    340.12851   0.86388034 
   37520    1018349.8    297.77399   -340.91194    169.79095    77.121056    77.769529    340.91194   0.86436134 
   37540    1018756.8    299.71901   -256.42455    169.83475    77.110854     77.79084    256.42455   0.86484234 
   37560    1019688.3    298.59494   -184.21364    169.87856    77.110187    77.842556    184.21364   0.86532334 
   37580    1020340.6    298.70893   -290.03075    169.92237    77.089649     77.89302    290.03075   0.86580434 
   37600    1020691.5    299.35389   -131.36642    169.96617    77.135426    77.853494    131.36642   0.86628535 
   37620    1020738.2    300.41176   -157.45639    170.00998    77.074883    77.898141    157.45639   0.86676635 
   37640    1022316.2    299.74637   -298.86898    170.05378    77.104945    77.968056    298.86898   0.86724735 
   37660    1023007.4    300.16469   -294.76923    170.09759    77.140505    77.964722    294.76923   0.86772835 
   37680    1021960.1    300.40379   -81.547803    170.14139     77.05656    77.949678    81.547803   0.86820935 
   37700    1021955.8    300.83424   -163.66372     170.1852    77.037492    77.948579    163.66372   0.86869035 
   37720    1021922.2    300.58725   -343.40685    170.22901    77.032995    77.930509    343.40685   0.86917135 
   37740    1021705.6    300.11418   -41.541533    170.27281    76.985738     77.94176    41.541533   0.86965236 
   37760    1022292.2     301.1748   -82.879942    170.31662    77.017173    77.934629    82.879942   0.87013336 
   37780    1021945.9    300.39598   -120.33435    170.36042    77.048434    77.856592    120.33435   0.87061436 
   37800    1022465.1    301.73869   -389.17726    170.40423    77.026864    77.897929    389.17726   0.87109536 
   37820    1022670.9    300.71376   -184.70932    170.44803     76.98635    77.934579    184.70932   0.87157636 
   37840    1023129.9    300.34621   -290.15645    170.49184    76.965195    77.970946    290.15645   0.87205736 
   37860    1023761.5    301.20284    -171.1365    170.53565    76.994462    77.969392     171.1365   0.87253836 
   37880    1023679.5    301.00168   -338.24941    170.57945    76.992646    77.944959    338.24941   0.87301936 
   37900    1022439.5    298.16002   -2.9910402    170.62326    76.927981    77.895982    2.9910402   0.87350037 
   37920    1023903.7    299.88436    -268.7818    170.66706     77.00978    77.904675     268.7818   0.87398137 
   37940    1023765.5    299.35958   -172.41242    170.71087    77.002081    77.881955    172.41242   0.87446237 
   37960    1023476.9     299.0443   -34.800953    170.75467     76.94231    77.900499    34.800953   0.87494337 
   37980    1023696.1    300.04706   -288.60753    170.79848     76.99338    77.845524    288.60753   0.87542437 
   38000    1023871.5    298.87756   -106.91602    170.84229    77.000089    77.832116    106.91602   0.87590537 
   38020    1025715.7    298.89402    -262.1998    170.88609    77.037888    77.914077     262.1998   0.87638637 
   38040    1025720.3    300.06293   -276.00371     170.9299    77.025268    77.907218    276.00371   0.87686738 
   38060    1025015.7    300.29562   -198.77249     170.9737     76.95193     77.90793    198.77249   0.87734838 
   38080    1025966.3    299.49151   -303.34774    171.01751    76.983402    77.928337    303.34774   0.87782938 
   38100    1026379.9    300.88352   -261.48043    171.06131    77.048427    77.874016    261.48043   0.87831038 
   38120    1025754.2    298.64806    110.57764    171.10512    77.040057     77.81507   -110.57764   0.87879138 
   38140    1027190.9    301.30208   -70.559634    171.14893    77.109641    77.833814    70.559634   0.87927238 
   38160    1027608.9    299.97109   -145.57782    171.19273    77.175512    77.779119    145.57782   0.87975338 
   38180    1027210.8    299.93298   -273.65528    171.23654    77.164239    77.740453    273.65528   0.88023439 
   38200    1027441.9    300.28523    -198.4535    171.28034    77.185633    77.716509     198.4535   0.88071539 
   38220    1027705.9    299.56024   -245.13382    171.32415    77.204211      77.6979    245.13382   0.88119639 
   38240    1027487.2    301.30761   -117.91515    171.36795    77.190554    77.675246    117.91515   0.88167739 
   38260    1028002.7    299.98468    10.291021    171.41176    77.200867     77.68398   -10.291021   0.88215839 
   38280    1028638.6    301.48873   -313.62814    171.45557    77.239355     77.67345    313.62814   0.88263939 
   38300    1028542.9    300.96975   -284.56362    171.49937    77.261048    77.624581    284.56362   0.88312039 
   38320    1028666.3    301.98567   -219.83331    171.54318    77.272347    77.602724    219.83331   0.88360139 
   38340    1028335.1    301.05031   -104.14966    171.58698    77.271259    77.559022    104.14966    0.8840824 
   38360    1028810.3    300.32459   -362.97882    171.63079    77.313745    77.532427    362.97882    0.8845634 
   38380    1029837.5    301.52175   -492.04642    171.67459    77.380729    77.522875    492.04642    0.8850444 
   38400    1029395.6    301.19526   -41.629836     171.7184    77.363882    77.486714    41.629836    0.8855254 
   38420    1030781.6    301.20079    124.95148    171.76221    77.396938    77.538118   -124.95148    0.8860064 
   38440    1031213.7    301.03962      22.4374    171.80601    77.401235    77.546539     -22.4374    0.8864874 
   38460    1030931.6    300.84727   -171.90347    171.84982    77.377592    77.529251    171.90347    0.8869684 
   38480    1031747.2    300.69076    -404.1783    171.89362    77.410937    77.537395     404.1783   0.88744941 
   38500    1031211.9    300.16042   -255.90128    171.93743     77.37972    77.508676    255.90128   0.88793041 
   38520    1031207.3    300.41181   -298.07402    171.98123     77.36061     77.50773    298.07402   0.88841141 
   38540    1032109.7    300.15869   -183.23507    172.02504    77.420425    77.495888    183.23507   0.88889241 
   38560    1032080.7    299.98891    16.883539    172.06885    77.456058    77.438337   -16.883539   0.88937341 
   38580    1032640.8    300.44168   -120.45192    172.11265    77.430623     77.48609    120.45192   0.88985441 
   38600    1033241.9    299.94468   -37.365546    172.15646    77.465754    77.476311    37.365546   0.89033541 
   38620    1032797.9    299.08696   -242.47056    172.20026    77.471919    77.417157    242.47056   0.89081642 
   38640    1033528.8    300.01541   -286.82605    172.24407    77.471493    77.452667    286.82605   0.89129742 
   38660      1034000    298.48112   -197.36457    172.28787    77.437195    77.502592    197.36457   0.89177842 
   38680    1034284.7    299.95008    6.4067879    172.33168    77.412868    77.528576   -6.4067879   0.89225942 
   38700    1034816.1    299.33388    -231.1992    172.37549    77.409669    77.551908     231.1992   0.89274042 
   38720    1033794.8    299.20312   -279.86326    172.41929     77.40693    77.458424    279.86326   0.89322142 
   38740    1033266.4    300.03894   -62.728148     172.4631    77.354056     77.45207    62.728148   0.89370242 
   38760    1033555.5    299.67214   -310.41527     172.5069    77.329702    77.478464    310.41527   0.89418343 
   38780    1032913.4    299.44854   -227.62994    172.55071    77.348067    77.392289    227.62994   0.89466443 
   38800    1032061.3    301.37274    19.283817    172.59451    77.301176    77.355711   -19.283817   0.89514543 
   38820    1032940.2    299.69286   -239.91821    172.63832    77.306964    77.396154    239.91821   0.89562643 
   38840    1032934.5    298.70763   -269.38225    172.68213    77.311905    77.371145    269.38225   0.89610743 
   38860    1032737.9    301.74228   -132.15667    172.72593    77.255031    77.393732    132.15667   0.89658843 
   38880    1033234.7    300.44787   -129.93038    172.76974    77.245857    77.420528    129.93038   0.89706943 
   38900    1035162.3    301.20261   -166.17512    172.81354    77.321322    77.469615    166.17512   0.89755043 
   38920    1036170.8    301.24506   -237.32638    172.85735    77.337463    77.509258    237.32638   0.89803144 
   38940    1036377.5    302.63581   -105.88856    172.90115    77.353418    77.489091    105.88856   0.89851244 
   38960    1037264.5      301.366   -152.30533    172.94496    77.363422    77.525743    152.30533   0.89899344 
   38980    1039214.1    303.34305   -408.74607    172.98877    77.409232    77.605832    408.74607   0.89947444 
   39000      1040220    300.93111   -79.371034    173.03257    77.431792    77.638661    79.371034   0.89995544 
   39020    1041199.5    301.39793   -188.13124    173.07638    77.390309    77.733741    188.13124   0.90043644 
   39040    1041609.8    299.84477    -239.6698    173.12018    77.371014    77.764086     239.6698   0.90091744 
   39060    1040358.3    300.61428   -5.3806095    173.16399    77.321644    77.700586    5.3806095   0.90139845 
   39080    1040046.4    300.80702   -163.71534    173.20779    77.297932    77.681469    163.71534   0.90187945 
   39100    1040049.8    300.52068   -369.42238     173.2516    77.287735    77.672328    369.42238   0.90236045 
   39120    1038788.6     300.1284   -2.9406844    173.29541    77.237688    77.608779    2.9406844   0.90284145 
   39140    1038940.8    300.14241   -250.72063    173.33921    77.242536    77.595668    250.72063   0.90332245 
   39160    1039234.8    300.28587   -212.96105    173.38302    77.211449    77.629256    212.96105   0.90380345 
   39180    1039664.7    300.39034   -63.486978    173.42682    77.179699    77.673693    63.486978   0.90428445 
   39200    1040551.1    299.55059   -299.88399    173.47063      77.2208    77.678917    299.88399   0.90476546 
   39220      1040799    300.13157   -256.08771    173.51443    77.210827    77.687844    256.08771   0.90524646 
   39240    1040731.5    300.23966   -238.81121    173.55824    77.191213    77.682929    238.81121   0.90572746 
   39260    1041256.2    299.33309   -322.68338    173.60205    77.230473    77.662987    322.68338   0.90620846 
   39280      1040362    299.99892   -104.37548    173.64585    77.203923    77.603388    104.37548   0.90668946 
   39300    1039439.9    299.33698   -178.49764    173.68966    77.208584    77.510375    178.49764   0.90717046 
   39320    1039872.9    300.96368   -150.08307    173.73346    77.224454    77.507178    150.08307   0.90765146 
   39340    1040518.3    300.31258   -255.22454    173.77727    77.197967    77.562342    255.22454   0.90813247 
   39360    1040146.3    299.70329   -21.183823    173.82107    77.211246    77.501742    21.183823   0.90861347 
   39380    1040877.6    299.90061    -69.63827    173.86488    77.194606    77.553397     69.63827   0.90909447 
   39400    1041325.7    299.35173   -190.83801    173.90869    77.160538    77.601487    190.83801   0.90957547 
   39420    1040952.7     298.9692   -160.94133    173.95249    77.115441    77.599511    160.94133   0.91005647 
   39440    1040797.4    298.83975   -116.20545     173.9963    77.071388    77.612741    116.20545   0.91053747 
   39460    1040962.2     300.3375   -412.81918     174.0401    77.131133    77.545378    412.81918   0.91101847 
   39480      1041109    299.84532   -181.75494    174.08391    77.157852     77.50995    181.75494   0.91149947 
   39500      1041856    299.31687   -59.535418    174.12771    77.182838    77.520945    59.535418   0.91198048 
   39520    1042106.7    300.35119    72.581683    174.17152    77.215552    77.487254   -72.581683   0.91246148 
   39540    1042892.5    299.55009   -264.89485    174.21533    77.222347    77.519364    264.89485   0.91294248 
   39560    1043084.2    298.12353   -165.89374    174.25913    77.224518    77.511944    165.89374   0.91342348 
   39580    1041894.4     299.1173   -104.43053    174.30294    77.135015    77.493883    104.43053   0.91390448 
   39600    1041882.6    298.85453   -358.86185    174.34674    77.063774    77.545157    358.86185   0.91438548 
   39620    1042812.9    298.01174   -469.86747    174.39055     77.12485    77.533452    469.86747   0.91486648 
   39640    1042424.4    299.20813   -162.66045    174.43435    77.135301    77.474608    162.66045   0.91534749 
   39660    1042294.4    298.39298   -54.205353    174.47816    77.074664    77.506425    54.205353   0.91582849 
   39680    1044212.2    299.73278   -218.92338    174.52197    77.118848    77.585067    218.92338   0.91630949 
   39700    1044268.7    299.15627    143.36134    174.56577    77.074718     77.61421   -143.36134   0.91679049 
   39720    1044665.4    299.96014    137.11674    174.60958    77.069596     77.62937   -137.11674   0.91727149 
   39740    1046419.9    299.76236   -228.73113    174.65338    77.155078    77.654118    228.73113   0.91775249 
   39760    1046492.4    300.56866   -328.07427    174.69719    77.167026    77.628003    328.07427   0.91823349 
   39780    1046717.8     300.5962   -371.68424    174.74099    77.158649    77.633681    371.68424    0.9187145 
   39800    1047796.8    300.24449   -397.39143     174.7848    77.123098    77.730052    397.39143    0.9191955 
   39820    1047703.6    300.52929   -187.66697    174.82861    77.131968    77.694722    187.66697    0.9196765 
   39840    1047229.7    301.50381    134.56362    174.87241    77.120813    77.651361   -134.56362    0.9201575 
   39860    1047183.2    299.91169   -76.898407    174.91622    77.099028    77.650399    76.898407    0.9206385 
   39880    1047043.7    300.82413   -276.62813    174.96002    77.121723    77.597775    276.62813    0.9211195 
   39900    1045966.2     300.5985   -226.23797    175.00383    77.079338    77.541133    226.23797    0.9216005 
   39920      1045843    300.33029   -403.81695    175.04763    77.037313    77.554879    403.81695   0.92208151 
   39940    1046013.3    302.09016   -275.57668    175.09144    77.027563    77.557918    275.57668   0.92256251 
   39960    1045635.1    300.49669    36.385532    175.13525    76.997609     77.54064   -36.385532   0.92304351 
   39980    1044943.1     300.7313    172.15603    175.17905    76.941714    77.526221   -172.15603   0.92352451 
   40000    1046087.7    300.74857    -226.5522    175.22286    76.987823    77.545268     226.5522   0.92400551 
Loop time of 2893.32 on 64 procs for 40000 steps with 72040 atoms

Performance: 1.194 ns/day, 20.092 hours/ns, 13.825 timesteps/s
99.7% CPU use with 64 MPI tasks x 1 OpenMP threads

MPI task timing breakdown:
Section |  min time  |  avg time  |  max time  |%varavg| %total
---------------------------------------------------------------
Pair    | 432.77     | 851.72     | 1126.8     | 621.7 | 29.44
Bond    | 29.77      | 50.516     | 62.239     | 110.8 |  1.75
Kspace  | 110.58     | 395.06     | 834.98     | 951.9 | 13.65
Neigh   | 1513.1     | 1516.4     | 1519.4     |   4.7 | 52.41
Comm    | 59.225     | 62.587     | 66.828     |  23.9 |  2.16
Output  | 1.2447     | 1.2554     | 1.2685     |   0.4 |  0.04
Modify  | 11.807     | 12.926     | 13.884     |  13.6 |  0.45
Other   |            | 2.819      |            |       |  0.10

Nlocal:        1125.62 ave        1594 max         117 min
Histogram: 3 2 5 1 3 2 6 16 13 13
Nghost:        12643.1 ave       15798 max        8153 min
Histogram: 7 7 2 0 5 10 3 9 6 15
Neighs:       781869.0 ave 1.30802e+06 max       41456 min
Histogram: 6 5 3 2 0 10 10 12 13 3

Total # of neighbors = 50039628
Ave neighs/atom = 694.60894
Ave special neighs/atom = 5.9972238
Neighbor list builds = 40000
Dangerous builds not checked
Total wall time: 0:48:17
