LAMMPS (29 Oct 2020)
OMP_NUM_THREADS environment is not set. Defaulting to 1 thread. (../comm.cpp:94)
  using 1 OpenMP thread(s) per MPI task
####################################################
#    This program is free software: you can redistribute it and/or modify
#    it under the terms of the GNU General Public License as published by
#    the Free Software Foundation, either version 3 of the License, or
#    (at your option) any later version.
#
#    This program is distributed in the hope that it will be useful,
#    but WITHOUT ANY WARRANTY; without even the implied warranty of
#    MERCHANTABILITY or FITNESS FOR A PARTICULAR PURPOSE.  See the
#    GNU General Public License for more details.


units		real        ## defines the units style used herein. More information: https://docs.lammps.org/units.html
atom_style	full        ## defines the atom style used herein. More information: https://docs.lammps.org/atom_style.html

# Styles
pair_style      lj/cut/coul/long 15.0 10.0      ## sets the formula(s) LAMMPS uses to compute pairwise interactions; here, lennard-jones (LJ) with long-range Coulomb interaction. More: https://docs.lammps.org/pair_lj_cut_coul.html
pair_modify     shift no                        ## the shift keyword determines whether a Lennard-Jones potential is shifted at its cutoff to 0.0. More: https://docs.lammps.org/pair_modify.html
kspace_style    pppm 1.0e-4                     ## defines a long-range solver for LAMMPS to compute long-range Coulombic interactions. Note: requires use of a matching pair style, i.e. PPPM with coul/long. More: https://docs.lammps.org/kspace_style.html
bond_style      harmonic                        ## defined based off the forcefield used to construct the system; models the atoms' interactions
angle_style     harmonic
dihedral_style  opls
improper_style  cvff
special_bonds   lj 0 0 1 coul 0 0 1

read_data       100K_PS.lmps      ## input lammps datafile, equilibriated until structure nears experimental properties
Reading data file ...
  orthogonal box = (56.625901 56.625901 56.625901) to (143.37410 143.37410 143.37410)
  4 by 4 by 4 MPI processor grid
  reading atoms ...
  64040 atoms
  reading velocities ...
  64040 velocities
  scanning bonds ...
  2 = max bonds/atom
  scanning angles ...
  6 = max angles/atom
  scanning dihedrals ...
  12 = max dihedrals/atom
  scanning impropers ...
  3 = max impropers/atom
  reading bonds ...
  68020 bonds
  reading angles ...
  119880 angles
  reading dihedrals ...
  191660 dihedrals
  reading impropers ...
  51880 impropers
Finding 1-2 1-3 1-4 neighbors ...
  special bond factors lj:    0.0      0.0      1.0     
  special bond factors coul:  0.0      0.0      1.0     
     4 = max # of 1-2 neighbors
     8 = max # of 1-3 neighbors
    12 = max # of special neighbors
  special bonds CPU = 1.395 seconds
  read_data CPU = 3.265 seconds

dielectric      1.0
neighbor    	1.0 bin
neigh_modify	delay 0 every 1 check no        ## this is to make sure that the neighbor list is updated every timestep, and the atoms don't get lost as the system is being deformed ##

timestep	    1.0                             ## unit = fs, per "real" unit style
run_style       verlet                          ## defines algorithm used for simulation computation; verlet integration is a numerical method used to integrate Newton's equations of motion.

variable stress equal press*-1                         ## computes stress as the negative of press values
variable engStrain equal (lx-91.07191)/91.07191        ## computes engineering strain; lx_0 must be found and inputted manually (for now)

thermo		    20                                                               ## output log data (headers in thermo_style), recorded at every timestep in numList.txt
thermo_style    custom step vol temp press lx ly lz v_stress v_engStrain         ## data headers of output log file. More: https://docs.lammps.org/thermo_style.html

################# Deformation ##################

fix 1 all npt temp 100 100 100 y 1 1 100.0 z 1 1 100.0      ## stress normal to the x direction can vary; external pressure (y and z) = 1atm ##

fix 2 all deform 1 x scale 2.0 remap x                      ## sets a uniaxial (x-direction) deformation in motion, scaling a set amount (here, 4.0x) the initial length


################# Dumping ##################

reset_timestep 0

dump dump2 all custom 20000 sim.lammpstrj id mol type q xs ys zs ix iy iz

restart 40000 PS.restart

run 		400000              ## this depends on the overall strain rate, where strain rate = deformScale / runTimeSteps (consider units!)
PPPM initialization ...
WARNING: System is not charge neutral, net charge = -8.9366436e-05 (../kspace.cpp:313)
  using 12-bit tables for long-range coulomb (../kspace.cpp:328)
  G vector (1/distance) = 0.20679655
  grid = 24 24 24
  stencil order = 5
  estimated absolute RMS force accuracy = 0.021807597
  estimated relative force accuracy = 6.5672931e-05
  using double precision FFTW3
  3d grid and FFT values/proc = 1331 216
Neighbor list info ...
  update every 1 steps, delay 0 steps, check no
  max neighbors/atom: 2000, page size: 100000
  master list distance cutoff = 16
  ghost atom cutoff = 16
  binsize = 8, bins = 11 11 11
  1 neighbor lists, perpetual/occasional/extra = 1 0 0
  (1) pair lj/cut/coul/long, perpetual
      attributes: half, newton on
      pair build: half/bin/newton
      stencil: half/bin/3d/newton
      bin: standard
Per MPI rank memory allocation (min/avg/max) = 18.50 | 18.92 | 19.30 Mbytes
Step Volume Temp Press Lx Ly Lz v_stress v_engStrain 
       0    652801.85      100.312     14228.52    86.748198    86.748198    86.748198    -14228.52 -0.047475807 
      20    657031.99    102.63276    118.73667    86.752535    87.026164    87.027098   -118.73667 -0.047428181 
      40    658433.16    102.69545    172.22433    86.756872    87.110763    87.123635   -172.22433 -0.047380555 
      60    655102.07    102.74893   -566.13931     86.76121    86.881057    86.907704    566.13931 -0.047332929 
      80     652377.7    102.08464    202.10302    86.765547    86.680127    86.742565   -202.10302 -0.047285303 
     100     651865.4    102.25346    573.13292    86.769885    86.670863    86.679378   -573.13292 -0.047237676 
     120    649070.87    102.03523   -425.82414    86.774222    86.484703    86.489242    425.82414  -0.04719005 
     140    650047.97    102.24662    809.74693    86.778559    86.546128    86.553638   -809.74693 -0.047142424 
     160    650470.22    101.91558    -576.8637    86.782897    86.583034    86.568615     576.8637 -0.047094798 
     180    650468.82    101.70489   -8.6903656    86.787234    86.593256    86.553884    8.6903656 -0.047047172 
     200    650548.88    101.12654     79.28112    86.791572    86.574982    86.578482    -79.28112 -0.046999545 
     220    650641.92    101.41805   -258.15392    86.795909     86.54975    86.611781    258.15392 -0.046951919 
     240    651471.19    101.09433    441.14584    86.800246    86.592013    86.675512   -441.14584 -0.046904293 
     260       650590    100.71358   -238.29892    86.804584    86.548831    86.597134    238.29892 -0.046856667 
     280    651120.06    101.01613     268.3909    86.808921    86.596433    86.615718    -268.3909 -0.046809041 
     300    651171.75    100.43261   -90.754607    86.813259     86.60022    86.614479    90.754607 -0.046761414 
     320    650978.48    100.29909    183.07524    86.817596    86.574406    86.610263   -183.07524 -0.046713788 
     340    651509.95    99.943821    226.59374    86.821934    86.608908    86.642113   -226.59374 -0.046666162 
     360       651161    100.08328   -396.02919    86.826271    86.609564    86.590727    396.02919 -0.046618536 
     380    651763.47    100.32094    299.17643    86.830608    86.669111    86.606967   -299.17643 -0.046570909 
     400    651261.96    100.34085    83.793582    86.834946    86.626441    86.578628   -83.793582 -0.046523283 
     420    651767.05    99.496753     118.6074    86.839283    86.635904    86.631984    -118.6074 -0.046475657 
     440    651224.39    99.825018    172.26516    86.843621    86.577217    86.614203   -172.26516 -0.046428031 
     460    651065.64    99.596475   -6.4882848    86.847958    86.537821    86.628184    6.4882848 -0.046380405 
     480    651758.09    99.723985   -148.40417    86.852295    86.577305    86.676441    148.40417 -0.046332778 
     500    650860.78    99.960838   -317.93821    86.856633    86.498722    86.631417    317.93821 -0.046285152 
     520    651429.58    99.520317    13.631961     86.86097    86.535362    86.666086   -13.631961 -0.046237526 
     540    651352.21    99.435558    -479.7923    86.865308    86.535102    86.651727     479.7923   -0.0461899 
     560    651542.04     99.65704    17.427872    86.869645    86.553938     86.65379   -17.427872 -0.046142274 
     580    651541.96    99.575713   -241.61701    86.873982    86.545506    86.657896    241.61701 -0.046094647 
     600    651351.03    99.966495   -244.76954     86.87832    86.511782    86.661945    244.76954 -0.046047021 
     620    651668.34    99.571532   -210.09307    86.882657     86.55045      86.6611    210.09307 -0.045999395 
     640    651348.08    99.719355   -172.76265    86.886995    86.522411    86.642255    172.76265 -0.045951769 
     660    652224.65    99.780883   -18.419043    86.891332    86.587143    86.689669    18.419043 -0.045904143 
     680    651526.56    100.08679   -178.36325    86.895669    86.517759    86.662005    178.36325 -0.045856516 
     700    651549.97    99.713914    291.34831    86.900007    86.539887    86.638634   -291.34831  -0.04580889 
     720    652252.79     99.95877    222.04682    86.904344    86.550267     86.71736   -222.04682 -0.045761264 
     740    651832.62    100.08103    64.738594    86.908682    86.521948    86.685535   -64.738594 -0.045713638 
     760    651690.41    99.892712    215.03427    86.913019    86.501928    86.682356   -215.03427 -0.045666011 
     780    651239.13    100.22434    194.86664    86.917357    86.499124    86.620815   -194.86664 -0.045618385 
     800    652023.13    100.02362    317.29307    86.921694    86.552786    86.667002   -317.29307 -0.045570759 
     820    652037.47      100.223    58.056732    86.926031    86.531987    86.685412   -58.056732 -0.045523133 
     840    651823.03    99.864456    287.97448    86.930369    86.505987    86.678624   -287.97448 -0.045475507 
     860    652366.38     100.6802    95.749852    86.934706     86.55064    86.701796   -95.749852  -0.04542788 
     880    651967.86    100.39156    -224.5125    86.939044    86.532686    86.662486     224.5125 -0.045380254 
     900    652616.24    100.16284    194.97135    86.943381    86.568952    86.708005   -194.97135 -0.045332628 
     920    652290.64    100.60744   -59.961234    86.947718    86.546755    86.682647    59.961234 -0.045285002 
     940    652368.15    100.32506   -70.057982    86.952056    86.530304    86.705105    70.057982 -0.045237376 
     960    652259.71    100.52803    199.71338    86.956393    86.514339    86.702365   -199.71338 -0.045189749 
     980    652517.88    100.60095   -141.41003    86.960731    86.513334    86.733363    141.41003 -0.045142123 
    1000       652638    99.763254    282.03275    86.965068    86.521648    86.736668   -282.03275 -0.045094497 
    1020    652333.16    99.917827    68.494004    86.969405     86.53199    86.681469   -68.494004 -0.045046871 
    1040    652581.71    100.18167    265.87925    86.973743    86.517267    86.724928   -265.87925 -0.044999245 
    1060    652410.12    100.31925    472.89466     86.97808    86.499857     86.71525   -472.89466 -0.044951618 
    1080    652758.76    99.718644   -62.001744    86.982418    86.531475    86.725563    62.001744 -0.044903992 
    1100    652748.18    99.654504    217.74242    86.986755    86.555492     86.69577   -217.74242 -0.044856366 
    1120    652441.44     99.38129   -10.843832    86.991092    86.543956    86.662259    10.843832  -0.04480874 
    1140    652892.63    99.816223     181.1385     86.99543    86.559483    86.702311    -181.1385 -0.044761114 
    1160    652595.32    100.01042    173.87463    86.999767    86.509752    86.708326   -173.87463 -0.044713487 
    1180    652652.37    99.953136    69.199497    87.004105    86.523902    86.697401   -69.199497 -0.044665861 
    1200    652675.83    99.870463    111.94292    87.008442    86.542725    86.677339   -111.94292 -0.044618235 
    1220    652830.62    99.645869   -285.18891     87.01278    86.552904    86.683379    285.18891 -0.044570609 
    1240    652737.21    99.759736    11.505415    87.017117    86.530785     86.68881   -11.505415 -0.044522982 
    1260    652710.91    99.711298   -249.36872    87.021454    86.537382    86.674388    249.36872 -0.044475356 
    1280    653038.01    100.22175   -231.56482    87.025792    86.590519    86.660289    231.56482  -0.04442773 
    1300    652709.94    99.741083    26.829156    87.030129    86.546073    86.656916   -26.829156 -0.044380104 
    1320    652948.94     99.79965   -384.38603    87.034467    86.533175    86.697247    384.38603 -0.044332478 
    1340    652921.56    99.754704   -30.393243    87.038804    86.548194    86.674248    30.393243 -0.044284851 
    1360    652896.35    99.740983    -86.46427    87.043141    86.574586    86.640163     86.46427 -0.044237225 
    1380    653018.64    99.695224   -5.1188481    87.047479    86.577036    86.649621    5.1188481 -0.044189599 
    1400    652752.15    100.17097   -75.389149    87.051816    86.568582    86.618402    75.389149 -0.044141973 
    1420    652862.56    99.969188   -109.23785    87.056154    86.550207    86.647129    109.23785 -0.044094347 
    1440    652678.39    99.765348    264.74062    87.060491    86.526559    86.642044   -264.74062  -0.04404672 
    1460    652959.03    99.975736   -101.95317    87.064828    86.560865    86.640629    101.95317 -0.043999094 
    1480     652850.6     100.1943    372.24125    87.069166    86.551636    86.631162   -372.24125 -0.043951468 
    1500    652842.66    100.33528    294.95313    87.073503    86.543652    86.633785   -294.95313 -0.043903842 
    1520    652828.07    99.922173    -124.3148    87.077841    86.534127    86.637069     124.3148 -0.043856216 
    1540    652345.78    100.22617    9.9103168    87.082178    86.497564    86.605346   -9.9103168 -0.043808589 
    1560    652481.53    100.32145   -122.34709    87.086516    86.509804    86.606797    122.34709 -0.043760963 
    1580    652795.16    100.48818   -239.96223    87.090853    86.519723     86.63418    239.96223 -0.043713337 
    1600    652436.24     100.2861   -291.12946     87.09519    86.480986    86.621015    291.12946 -0.043665711 
    1620    652193.38    100.22114    57.025812    87.099528    86.453025    86.612463   -57.025812 -0.043618084 
    1640    652549.53    100.58177   -239.01696    87.103865     86.46089    86.647563    239.01696 -0.043570458 
    1660    652626.83    99.883227    -10.91092    87.108203    86.487289    86.627063     10.91092 -0.043522832 
    1680    652293.94     100.2489    358.41374     87.11254    86.462685    86.603201   -358.41374 -0.043475206 
    1700    652690.12    99.985433    242.03788    87.116877    86.481661    86.632474   -242.03788  -0.04342758 
    1720    652872.55      100.194    145.17279    87.121215    86.484854    86.649175   -145.17279 -0.043379953 
    1740    652441.09    99.679067    401.47416    87.125552    86.485692    86.586761   -401.47416 -0.043332327 
    1760    652342.08    99.930358    541.72993     87.12989    86.506067    86.548922   -541.72993 -0.043284701 
    1780     652996.2    99.551794   -298.89061    87.134227    86.542253    86.595172    298.89061 -0.043237075 
    1800    652973.51    99.532009    300.56457    87.138564     86.52163     86.60849   -300.56457 -0.043189449 
    1820    652872.56    99.596421    105.07704    87.142902    86.507136    86.605299   -105.07704 -0.043141822 
    1840    652919.71    99.599415   -217.42708    87.147239    86.475402    86.639025    217.42708 -0.043094196 
    1860    652912.81    99.553229    20.534221    87.151577    86.456773    86.652465   -20.534221  -0.04304657 
    1880    652838.49    99.932848    60.732592    87.155914    86.464071    86.630977   -60.732592 -0.042998944 
    1900    652951.05    99.727512    160.93858    87.160251    86.489602    86.616026   -160.93858 -0.042951318 
    1920    652836.78    99.878869   -316.25742    87.164589    86.488646    86.597516    316.25742 -0.042903691 
    1940    652650.73    100.27071    129.65653    87.168926    86.489009    86.568165   -129.65653 -0.042856065 
    1960    652733.31     100.3475    124.34099    87.173264    86.500135    86.563675   -124.34099 -0.042808439 
    1980    652593.99    100.31579    81.596242    87.177601    86.466456      86.5746   -81.596242 -0.042760813 
    2000    652628.25     100.3703    153.42258    87.181939    86.467187    86.574106   -153.42258 -0.042713186 
    2020    652690.51    99.988756   -93.674603    87.186276    86.490617    86.554605    93.674603  -0.04266556 
    2040    652606.92    100.13066   -149.19177    87.190613    86.494327    86.535502    149.19177 -0.042617934 
    2060    652639.45    100.11597   -351.43025    87.194951    86.476228    86.553622    351.43025 -0.042570308 
    2080    652370.43    100.31573    8.8053623    87.199288    86.443767    86.546129   -8.8053623 -0.042522682 
    2100    652537.88    99.817624   -272.01169    87.203626    86.466141    86.541637    272.01169 -0.042475055 
    2120    652585.66    100.32442   -366.32023    87.207963    86.446713    86.563119    366.32023 -0.042427429 
    2140    652628.11    100.28169   -33.554299      87.2123    86.443467    86.567695    33.554299 -0.042379803 
    2160    652483.35     99.83323    35.843823    87.216638    86.420459    86.567231   -35.843823 -0.042332177 
    2180    652777.76    99.866744  -0.72138138    87.220975    86.451865    86.570523   0.72138138 -0.042284551 
    2200    652725.93    99.810536    15.162852    87.225313    86.441508    86.569717   -15.162852 -0.042236924 
    2220    652468.69    99.648683    193.16011     87.22965    86.422222    86.550607   -193.16011 -0.042189298 
    2240    652695.18    99.742048   -111.54109    87.233987    86.448471    86.550059    111.54109 -0.042141672 
    2260    652662.83    99.611677   -164.94489    87.238325     86.44585    86.544089    164.94489 -0.042094046 
    2280    652658.46    99.255991   -97.961442    87.242662     86.43478     86.55029    97.961442  -0.04204642 
    2300    652885.98    99.686661   -90.943821       87.247    86.439897    86.571033    90.943821 -0.041998793 
    2320     652952.5    99.423812    -238.2745    87.251337    86.445278    86.570161     238.2745 -0.041951167 
    2340    652660.33    99.728595   -186.19628    87.255674    86.445924    86.526475    186.19628 -0.041903541 
    2360    652423.53    99.871643   -57.402754    87.260012    86.444635    86.492072    57.402754 -0.041855915 
    2380    653114.15    99.816805    -420.7636    87.264349    86.496387    86.527522     420.7636 -0.041808289 
    2400    652848.15    99.827105   -283.02248    87.268687    86.444768    86.539627    283.02248 -0.041760662 
    2420    652738.45    99.784124   -137.42027    87.273024    86.439321    86.526238    137.42027 -0.041713036 
    2440    653139.15    100.22815    -21.14187    87.277362    86.473099    86.541235     21.14187  -0.04166541 
    2460     652843.9    99.967822   -51.450598    87.281699    86.454969    86.515954    51.450598 -0.041617784 
    2480     652927.5    100.23245   -40.521876    87.286036     86.42422    86.553517    40.521876 -0.041570157 
    2500    652883.89    99.951491    347.40465    87.290374    86.448564    86.519064   -347.40465 -0.041522531 
    2520    652445.85    100.01447    299.96639    87.294711    86.418814    86.486483   -299.96639 -0.041474905 
    2540    652239.12    99.801526    343.82336    87.299049    86.425733    86.447863   -343.82336 -0.041427279 
    2560    652219.09    100.22982    273.78309    87.303386     86.41929    86.447358   -273.78309 -0.041379653 
    2580    652286.52    100.11249    170.05511    87.307723    86.435103    86.436185   -170.05511 -0.041332026 
    2600    652284.56    100.65075    218.23644    87.312061    86.409856    86.456884   -218.23644   -0.0412844 
    2620    652417.27    99.943211   -65.076725    87.316398     86.41168    86.468353    65.076725 -0.041236774 
    2640    652297.95    100.24103    167.43275    87.320736    86.414009    86.445915   -167.43275 -0.041189148 
    2660    652788.24    100.12982   -11.105136    87.325073    86.435405    86.485181    11.105136 -0.041141522 
    2680    652894.78    99.783208   -332.30601     87.32941    86.425575    86.504836    332.30601 -0.041093895 
    2700    652788.64    100.45769   -214.11798    87.333748    86.422183    86.489873    214.11798 -0.041046269 
    2720    652874.66    100.03842    32.892145    87.338085     86.45798    86.461161   -32.892145 -0.040998643 
    2740    653081.81    99.582052    3.4997874    87.342423    86.468334    86.473944   -3.4997874 -0.040951017 
    2760    652818.73    99.917683   -69.436371     87.34676    86.454731    86.448416    69.436371 -0.040903391 
    2780    652470.47    99.735867    299.84667    87.351098    86.416581    86.436151   -299.84667 -0.040855764 
    2800    652697.13    99.683977    85.776686    87.355435    86.426918    86.451544   -85.776686 -0.040808138 
    2820     653186.8     99.60501     144.2593    87.359772    86.454124    86.484881    -144.2593 -0.040760512 
    2840     652818.6     100.0968    307.33466     87.36411    86.442289    86.443671   -307.33466 -0.040712886 
    2860    652612.31    99.539997   -92.910966    87.368447    86.427976    86.426376    92.910966 -0.040665259 
    2880    652777.19    99.652852    98.140281    87.372785    86.410097    86.461807   -98.140281 -0.040617633 
    2900     652945.8    99.540504   -312.75698    87.377122    86.413944    86.475996    312.75698 -0.040570007 
    2920    653077.45    99.466777   -470.21836    87.381459    86.428192     86.47488    470.21836 -0.040522381 
    2940    652862.53    99.895232   -303.37351    87.385797    86.423452    86.446872    303.37351 -0.040474755 
    2960    652184.42    99.399363   -168.43431    87.390134    86.358541    86.417703    168.43431 -0.040427128 
    2980    652617.48    99.586861   -279.86392    87.394472    86.394317    86.434986    279.86392 -0.040379502 
    3000    653023.37    99.351606   -278.36488    87.398809    86.409552    86.469203    278.36488 -0.040331876 
    3020    652524.21    99.344223    58.448191    87.403146    86.375414    86.432967   -58.448191  -0.04028425 
    3040    652556.41    99.318643    79.008403    87.407484    86.370084    86.438277   -79.008403 -0.040236624 
    3060    652661.74    99.627248     213.7982    87.411821    86.413355     86.40465    -213.7982 -0.040188997 
    3080    652816.94    99.538018    185.71856    87.416159    86.416166    86.418098   -185.71856 -0.040141371 
    3100    652879.14    99.741734    -107.9879    87.420496    86.406291     86.43192     107.9879 -0.040093745 
    3120    652817.06      99.9355   -39.382478    87.424833    86.389959    86.435752    39.382478 -0.040046119 
    3140    652757.69    99.619971   -251.67766    87.429171     86.39293    86.420631    251.67766 -0.039998493 
    3160    652904.26    100.03992   -323.08748    87.433508    86.402449    86.426225    323.08748 -0.039950866 
    3180    652938.42    100.25008   -441.10021    87.437846     86.37712    86.451803    441.10021  -0.03990324 
    3200    652547.06    99.829348   -428.95148    87.442183    86.343696    86.429144    428.95148 -0.039855614 
    3220    652472.42    100.11956   -159.67419    87.446521    86.372092    86.386562    159.67419 -0.039807988 
    3240    652728.44    100.06732    26.214857    87.450858    86.394723    86.393535   -26.214857 -0.039760361 
    3260    652976.65    100.11806   -68.634107    87.455195     86.42008    86.396743    68.634107 -0.039712735 
    3280    652810.83    100.14414   -15.113011    87.459533    86.404334    86.386259    15.113011 -0.039665109 
    3300     652476.5    100.25152    276.72246     87.46387     86.38132    86.360739   -276.72246 -0.039617483 
    3320    652584.78    100.30288    222.32525    87.468208    86.350965    86.401149   -222.32525 -0.039569857 
    3340    652794.89    100.11751    108.67104    87.472545    86.373257    86.402376   -108.67104  -0.03952223 
    3360    652678.97    100.04161    182.38263    87.476882     86.36047    86.395541   -182.38263 -0.039474604 
    3380    652661.86    100.01727    221.30929     87.48122     86.35085    86.398617   -221.30929 -0.039426978 
    3400    652779.02    100.12662   -114.22499    87.485557    86.341102    86.419598    114.22499 -0.039379352 
    3420       652885    100.21882   -177.86258    87.489895    86.366247     86.40418    177.86258 -0.039331726 
    3440    652970.02    99.837369   -31.974145    87.494232    86.374709    86.402681    31.974145 -0.039284099 
    3460    653086.15     99.94248   -203.15994    87.498569    86.401101    86.387369    203.15994 -0.039236473 
    3480    652997.06    99.927569   -203.99778    87.502907    86.388231     86.38417    203.99778 -0.039188847 
    3500     653286.7    99.525512    47.697074    87.507244    86.387427    86.419007   -47.697074 -0.039141221 
    3520    653304.79    99.920932    10.254658    87.511582    86.385636    86.418908   -10.254658 -0.039093595 
    3540    653337.39    99.408306    73.679346    87.515919    86.367478    86.437106   -73.679346 -0.039045968 
    3560    653324.76    99.298853    158.77149    87.520256    86.373404    86.425222   -158.77149 -0.038998342 
    3580    653149.52    99.837172    241.57987    87.524594    86.380632    86.390529   -241.57987 -0.038950716 
    3600    653133.06    99.658527    62.587003    87.528931    86.384012     86.38069   -62.587003  -0.03890309 
    3620    653450.82    99.660086   -4.1894155    87.533269    86.393088    86.409355    4.1894155 -0.038855464 
    3640    653471.84    100.07077   -158.48329    87.537606    86.395874    86.405067    158.48329 -0.038807837 
    3660    653139.89    99.535842   -96.233328    87.541944    86.365518    86.387249    96.233328 -0.038760211 
    3680    653409.32    99.828373   -83.291274    87.546281     86.35002    86.434113    83.291274 -0.038712585 
    3700    653713.49    100.16182   -99.349946    87.550618    86.341847     86.47825    99.349946 -0.038664959 
    3720    653532.71    99.975309    -330.2088    87.554956    86.324208    86.467718     330.2088 -0.038617332 
    3740    654053.21    99.949852   -394.69059    87.559293    86.369534    86.486886    394.69059 -0.038569706 
    3760    654052.15    100.11489   -249.38333    87.563631     86.33876    86.513287    249.38333  -0.03852208 
    3780    653736.67    100.06671   -195.22918    87.567968    86.333745    86.472296    195.22918 -0.038474454 
    3800    654253.75    99.996065    57.929545    87.572305    86.372976    86.497101   -57.929545 -0.038426828 
    3820    654611.94    100.08763   -282.57937    87.576643    86.399732    86.513372    282.57937 -0.038379201 
    3840    654336.44    100.16986    75.003268     87.58098    86.378284    86.494149   -75.003268 -0.038331575 
    3860    654080.37    100.29637    135.97245    87.585318    86.377967    86.456336   -135.97245 -0.038283949 
    3880    654412.26    100.11822   -51.916154    87.589655    86.363133    86.510779    51.916154 -0.038236323 
    3900    654383.13    100.32801   -83.933556    87.593992    86.330601    86.535242    83.933556 -0.038188697 
    3920    654014.63    100.38391   -153.01864     87.59833    86.307577      86.5053    153.01864  -0.03814107 
    3940    653759.22    100.38593   -29.809569    87.602667    86.326834    86.447947    29.809569 -0.038093444 
    3960    653479.51    100.51874   -465.23726    87.607005    86.340348    86.393158    465.23726 -0.038045818 
    3980    653126.34    99.679169   -321.26525    87.611342    86.321137    86.361408    321.26525 -0.037998192 
    4000    653556.43    100.31452   -167.12046     87.61568    86.385016    86.350099    167.12046 -0.037950566 
    4020     653458.6    99.986358   -316.99037    87.620017    86.355822    86.362086    316.99037 -0.037902939 
    4040    653094.22    99.855666   -191.07975    87.624354    86.321826    86.343647    191.07975 -0.037855313 
    4060    653020.94     99.70415   -203.74481    87.628692    86.330465    86.321047    203.74481 -0.037807687 
    4080    653280.88     99.91017   -45.436483    87.633029    86.366978    86.314627    45.436483 -0.037760061 
    4100    653016.04     100.0333    32.032196    87.637367    86.314699     86.32762   -32.032196 -0.037712434 
    4120    652994.48    99.672132    224.13982    87.641704    86.349662    86.285548   -224.13982 -0.037664808 
    4140    653334.29    100.02814    123.46086    87.646041    86.377429    86.298425   -123.46086 -0.037617182 
    4160    653193.13    99.741531    100.38386    87.650379    86.360589    86.292334   -100.38386 -0.037569556 
    4180    653632.45    99.732626    191.98492    87.654716    86.367276    86.339414   -191.98492  -0.03752193 
    4200    653779.13    99.863921   -209.16172    87.659054    86.378876    86.342919    209.16172 -0.037474303 
    4220    653626.02    99.800829   -149.11107    87.663391    86.344163    86.353129    149.11107 -0.037426677 
    4240    653598.94    99.988908   -191.68018    87.667728    86.312832    86.376623    191.68018 -0.037379051 
    4260    653835.49    99.638016   -281.64288    87.672066    86.336057    86.380366    281.64288 -0.037331425 
    4280    653483.66     99.97133    -183.0174    87.676403    86.321204    86.344468     183.0174 -0.037283799 
    4300    653314.41    100.39263   -179.86911    87.680741    86.305158    86.333884    179.86911 -0.037236172 
    4320    653499.83     99.86964    82.682404    87.685078    86.315971    86.343297   -82.682404 -0.037188546 
    4340    653463.99    100.03524    18.910815    87.689415     86.36955    86.280733   -18.910815  -0.03714092 
    4360     653056.3    99.872271     131.6957    87.693753    86.344854    86.247301    -131.6957 -0.037093294 
    4380     653371.3    99.746274    401.70117     87.69809    86.345046    86.284442   -401.70117 -0.037045668 
    4400    653158.29    100.36849    165.57815    87.702428    86.317658    86.279413   -165.57815 -0.036998041 
    4420    653051.74     100.2814    228.06373    87.706765    86.295893    86.282829   -228.06373 -0.036950415 
    4440    653120.87    100.46817   -85.445304    87.711103    86.268102    86.315491    85.445304 -0.036902789 
    4460    653239.34    100.14048    7.8940224     87.71544    86.278824    86.316151   -7.8940224 -0.036855163 
    4480    653090.41    99.935155   -266.47478    87.719777    86.295493    86.275537    266.47478 -0.036807536 
    4500    653082.24    100.05113   -310.84867    87.724115    86.307644    86.258047    310.84867  -0.03675991 
    4520    653639.88    99.956552   -364.96534    87.728452    86.355986    86.279104    364.96534 -0.036712284 
    4540    653309.13    100.03663   -509.51211     87.73279     86.35325    86.233915    509.51211 -0.036664658 
    4560    653216.96    100.06988   -172.76999    87.737127    86.368483    86.202279    172.76999 -0.036617032 
    4580    653469.32    99.973289   -28.744424    87.741464    86.359057    86.240732    28.744424 -0.036569405 
    4600     654070.2    99.740145   -255.79977    87.745802     86.40521    86.269659    255.79977 -0.036521779 
    4620    654157.93    100.03691    163.98151    87.750139    86.403312    86.278862   -163.98151 -0.036474153 
    4640    654326.09    100.32086    243.87467    87.754477    86.378447    86.321617   -243.87467 -0.036426527 
    4660    654778.64    99.829974   -217.47011    87.758814    86.376312    86.379184    217.47011 -0.036378901 
    4680    654892.82    99.646082   -103.20741    87.763151    86.384849     86.38144    103.20741 -0.036331274 
    4700    654751.67    99.799445   -139.17092    87.767489    86.364027    86.379375    139.17092 -0.036283648 
    4720       654758    99.331494   -380.36781    87.771826     86.34901    86.390962    380.36781 -0.036236022 
    4740    654525.58    99.350104   -425.89042    87.776164    86.340671    86.364369    425.89042 -0.036188396 
    4760    654197.09    99.716312   -267.61956    87.780501    86.321837    86.335594    267.61956  -0.03614077 
    4780    654230.36    99.503772    -310.3278    87.784838    86.335028    86.322527     310.3278 -0.036093143 
    4800    654152.49    99.728098   -306.98277    87.789176    86.334456     86.30856    306.98277 -0.036045517 
    4820    654068.99      99.9732   -134.86441    87.793513    86.330629    86.297106    134.86441 -0.035997891 
    4840    654234.11    99.771304   -329.49835    87.797851    86.308883    86.336373    329.49835 -0.035950265 
    4860    654428.11    100.11413    -101.4704    87.802188    86.347272    86.319314     101.4704 -0.035902639 
    4880    654580.03    100.22818   -21.617521    87.806526    86.368435    86.313934    21.617521 -0.035855012 
    4900    654571.97     100.0456   -308.95865    87.810863    86.350563    86.326471    308.95865 -0.035807386 
    4920    654327.37    100.19543   -101.35683      87.8152    86.325028    86.315475    101.35683  -0.03575976 
    4940    654342.97    100.37651   -150.58021    87.819538     86.31612    86.322177    150.58021 -0.035712134 
    4960    654441.05    100.28392   -75.519265    87.823875    86.337688    86.309285    75.519265 -0.035664507 
    4980     654592.2    100.00272   -128.72235    87.828213    86.306573    86.356078    128.72235 -0.035616881 
    5000    654793.41    100.25141    -204.8216     87.83255    86.305205    86.379726     204.8216 -0.035569255 
    5020    654697.37    100.77124   -238.48699    87.836887    86.293146    86.374861    238.48699 -0.035521629 
    5040    654677.34    99.884394   -146.38505    87.841225    86.286396    86.374708    146.38505 -0.035474003 
    5060    654940.41    100.07155    32.066769    87.845562    86.281236    86.410317   -32.066769 -0.035426376 
    5080    655087.93    99.769804    -365.8638      87.8499    86.308092    86.398622     365.8638  -0.03537875 
    5100    654447.69    100.34013    -204.9706    87.854237    86.268477    86.349553     204.9706 -0.035331124 
    5120    654405.34    100.25706    81.938564    87.858574    86.246293    86.361911   -81.938564 -0.035283498 
    5140    654560.34    100.42578    33.445572    87.862912    86.235007    86.389407   -33.445572 -0.035235872 
    5160    654494.45     100.1228   -94.271176    87.867249    86.246315    86.365122    94.271176 -0.035188245 
    5180     654296.6    99.704655    47.677758    87.871587     86.23876    86.342316   -47.677758 -0.035140619 
    5200    654130.11    99.828293    106.56104    87.875924     86.24807    86.306767   -106.56104 -0.035092993 
    5220    654447.83    99.583236   -111.86867    87.880262    86.270168    86.322308    111.86867 -0.035045367 
    5240    654599.63    99.827258   -2.8311493    87.884599    86.252577    86.355678    2.8311493 -0.034997741 
    5260    654585.25    99.858274     38.25769    87.888936    86.245758    86.356347    -38.25769 -0.034950114 
    5280    654689.74    99.661628   -231.77425    87.893274    86.269067    86.342534    231.77425 -0.034902488 
    5300    654984.52    99.115111   -212.86099    87.897611    86.288673    86.357523    212.86099 -0.034854862 
    5320    655328.21    99.735398   -294.96201    87.901949    86.319223    86.367994    294.96201 -0.034807236 
    5340    655136.72       99.962   -206.20872    87.906286    86.286161    86.371579    206.20872 -0.034759609 
    5360     654986.6    99.890254   -209.14042    87.910623    86.290882    86.342803    209.14042 -0.034711983 
    5380    655032.76    99.847645   -150.30321    87.914961      86.2886    86.346913    150.30321 -0.034664357 
    5400     654843.1     99.78837    -280.2638    87.919298    86.263112    86.343157     280.2638 -0.034616731 
    5420    654640.56    100.08063    133.78065    87.923636     86.26116    86.314147   -133.78065 -0.034569105 
    5440    654846.45    100.01005   -104.26761    87.927973    86.272309    86.325876    104.26761 -0.034521478 
    5460    655084.79    100.31474   -358.09924     87.93231    86.272504     86.35284    358.09924 -0.034473852 
    5480    654675.34    99.817004    133.46816    87.936648     86.24883    86.318297   -133.46816 -0.034426226 
    5500    654891.72    100.01823   -175.23386    87.940985    86.257141    86.334249    175.23386   -0.0343786 
    5520    654878.71    100.14331   -215.23902    87.945323    86.262149    86.323265    215.23902 -0.034330974 
    5540    654637.23    100.06744   -220.18219     87.94966    86.258621    86.290707    220.18219 -0.034283347 
    5560    654821.81    100.27245   -141.72856    87.953997    86.258923    86.310478    141.72856 -0.034235721 
    5580    654970.38     99.87293   -496.65383    87.958335     86.28763    86.297085    496.65383 -0.034188095 
    5600    654839.12    100.08412   -549.57313    87.962672    86.275379    86.287786    549.57313 -0.034140469 
    5620    655100.32     100.2307   -116.37146     87.96701    86.274806    86.318521    116.37146 -0.034092843 
    5640    655389.82    100.15018   -547.19607    87.971347    86.276791    86.350422    547.19607 -0.034045216 
    5660     655155.2    100.22718   -188.19159    87.975685    86.252206    86.339857    188.19159  -0.03399759 
    5680    654964.58    99.708895    21.594141    87.980022    86.210432    86.352303   -21.594141 -0.033949964 
    5700     654995.6    99.609821   -132.58285    87.984359    86.213721    86.348841    132.58285 -0.033902338 
    5720    654624.96    100.07398    39.473677    87.988697    86.185923    86.323559   -39.473677 -0.033854711 
    5740    654787.11    99.552825   -126.20568    87.993034    86.174965    86.351664    126.20568 -0.033807085 
    5760     654965.6     100.4494   -234.34851    87.997372    86.165957    86.379975    234.34851 -0.033759459 
    5780    655002.15    100.14296    -116.7105    88.001709    86.179151    86.367313     116.7105 -0.033711833 
    5800    655062.01    99.701362   -106.85171    88.006046    86.182956    86.367135    106.85171 -0.033664207 
    5820    655391.52    99.375277   -310.08652    88.010384    86.194773    86.394476    310.08652  -0.03361658 
    5840    655389.68    100.28374   -306.13326    88.014721    86.193885    86.390865    306.13326 -0.033568954 
    5860    655128.22    100.02465   -204.01666    88.019059    86.168287    86.377797    204.01666 -0.033521328 
    5880    655279.12    100.10429   -366.62853    88.023396    86.165904    86.395825    366.62853 -0.033473702 
    5900    655335.09    100.07771   -240.40135    88.027733    86.183207    86.381602    240.40135 -0.033426076 
    5920    655225.96    100.30348    -294.1445    88.032071    86.192365    86.353785     294.1445 -0.033378449 
    5940    655034.21     100.1697    90.460813    88.036408    86.192216     86.32441   -90.460813 -0.033330823 
    5960     655031.8    100.00506    281.20603    88.040746    86.190731    86.321327   -281.20603 -0.033283197 
    5980    655108.54    100.24253     216.2839    88.045083    86.214115    86.303772    -216.2839 -0.033235571 
    6000    655161.13    100.50162    230.93058     88.04942    86.214142    86.306422   -230.93058 -0.033187945 
    6020    655085.92    100.47378     101.9532    88.053758    86.220507    86.285893    -101.9532 -0.033140318 
    6040    654819.65     100.3166    160.61807    88.058095    86.203356    86.263732   -160.61807 -0.033092692 
    6060    655022.08    100.37875   -488.81525    88.062433    86.210322    86.279177    488.81525 -0.033045066 
    6080    654895.67    100.25608   -543.63543     88.06677    86.177838    86.290791    543.63543  -0.03299744 
    6100    654283.76    100.32501   -383.82806    88.071108    86.150575      86.2332    383.82806 -0.032949814 
    6120    654523.72    100.39964    -412.3235    88.075445    86.188466    86.222655     412.3235 -0.032902187 
    6140    654875.52    99.814743   -591.80538    88.079782    86.220411     86.23279    591.80538 -0.032854561 
    6160     654334.1    100.23984   -255.94334     88.08412    86.155484    86.222183    255.94334 -0.032806935 
    6180     654333.4    99.714141    36.364017    88.088457    86.144631    86.228707   -36.364017 -0.032759309 
    6200    654770.63    99.827565   -269.07171    88.092795    86.172405    86.254267    269.07171 -0.032711682 
    6220    654914.53    99.752834   0.45139187    88.097132    86.190434    86.250931  -0.45139187 -0.032664056 
    6240    654795.44    99.762917      64.3124    88.101469     86.18753    86.233905     -64.3124  -0.03261643 
    6260    654848.34    99.690542    23.007252    88.105807    86.195088    86.229065   -23.007252 -0.032568804 
    6280    654994.38    99.689662    34.224965    88.110144    86.182414    86.256733   -34.224965 -0.032521178 
    6300    654956.78    100.18525   -88.830976    88.114482    86.177695     86.25226    88.830976 -0.032473551 
    6320    655120.05    99.639919    125.16312    88.118819    86.215703    86.231482   -125.16312 -0.032425925 
    6340    655557.26    99.592515   -571.04702    88.123156    86.237359    86.263116    571.04702 -0.032378299 
    6360    655328.07    99.721235   -368.54881    88.127494    86.181721    86.284381    368.54881 -0.032330673 
    6380    655086.71    99.853156   -484.02696    88.131831    86.173532    86.256554    484.02696 -0.032283047 
    6400    655033.16    99.748526   -380.53974    88.136169    86.166462    86.252334    380.53974  -0.03223542 
    6420       655317     100.1419   -363.27829    88.140506    86.166474    86.285451    363.27829 -0.032187794 
    6440    654890.49     100.0199   -404.11178    88.144844    86.102414      86.2892    404.11178 -0.032140168 
    6460    654839.46    100.33565   -194.10461    88.149181    86.102756    86.277889    194.10461 -0.032092542 
    6480     655197.6    99.990002   -210.45536    88.153518    86.130531    86.292991    210.45536 -0.032044916 
    6500    655122.43    100.23182   -4.1534037    88.157856    86.137363    86.272002    4.1534037 -0.031997289 
    6520    655152.03    100.22166   -31.690497    88.162193     86.14653    86.262475    31.690497 -0.031949663 
    6540    655404.17    100.11654   -71.657728    88.166531    86.168525    86.269402    71.657728 -0.031902037 
    6560    655593.63    100.31847   -62.555421    88.170868    86.196828    86.261763    62.555421 -0.031854411 
    6580    655476.98     99.82394   -283.33146    88.175205    86.177585    86.261427    283.33146 -0.031806784 
    6600    655560.52    100.54971   -197.08952    88.179543     86.18757    86.258185    197.08952 -0.031759158 
    6620       655429    100.23318   -262.44925     88.18388    86.181329    86.242883    262.44925 -0.031711532 
    6640    655120.53    100.16788   -269.24756    88.188218    86.166907    86.212481    269.24756 -0.031663906 
    6660    655432.49    100.29676   -322.68363    88.192555    86.168076    86.248121    322.68363  -0.03161628 
    6680    655611.74    100.14701   -357.66104    88.196892    86.185544    86.249982    357.66104 -0.031568653 
    6700    655409.36    100.44917   -253.26877     88.20123    86.154926    86.249758    253.26877 -0.031521027 
    6720    655464.61     100.0234   -325.13465    88.205567    86.178069    86.229623    325.13465 -0.031473401 
    6740    655355.04    100.23885    240.79059    88.209905    86.183648     86.20539   -240.79059 -0.031425775 
    6760    655503.03    100.06232   -153.67045    88.214242    86.214677    86.189585    153.67045 -0.031378149 
    6780    655332.37    99.872586   -61.819904    88.218579    86.180278    86.197301    61.819904 -0.031330522 
    6800    655435.26    99.994021    12.924951    88.222917    86.154033    86.232857   -12.924951 -0.031282896 
    6820    654949.97    99.946261    149.19991    88.227254    86.138601     86.18021   -149.19991  -0.03123527 
    6840    655307.29    100.15982    11.268746    88.231592    86.201858    86.159716   -11.268746 -0.031187644 
    6860    655258.84    100.36241   -215.86045    88.235929    86.205752    86.145219    215.86045 -0.031140018 
    6880     655346.6    99.735833   -66.926914    88.240267    86.185683    86.172583    66.926914 -0.031092391 
    6900    655469.96    100.08673   -247.21467    88.244604    86.201118    86.169135    247.21467 -0.031044765 
    6920    655290.03    99.704705   -375.89011    88.248941    86.190014    86.152345    375.89011 -0.030997139 
    6940    655422.66    99.705097   -285.42396    88.253279     86.18034    86.175219    285.42396 -0.030949513 
    6960    655415.44    99.797595    1.7173032    88.257616    86.188445    86.161931   -1.7173032 -0.030901886 
    6980    655147.17    99.591379   -116.49407    88.261954    86.199395    86.111493    116.49407  -0.03085426 
    7000    655190.17    99.922599   -14.654734    88.266291    86.208571    86.103746    14.654734 -0.030806634 
    7020     655365.4     99.81124   -31.359192    88.270628     86.19885    86.132256    31.359192 -0.030759008 
    7040    655409.75    100.01737    4.8885321    88.274966    86.212672    86.120043   -4.8885321 -0.030711382 
    7060    654917.14    99.609407    172.56562    88.279303    86.182148    86.081563   -172.56562 -0.030663755 
    7080    655355.12    99.495463   -381.51885    88.283641    86.241036    86.076084    381.51885 -0.030616129 
    7100     655171.5     100.0035   -310.50229    88.287978    86.214359    86.074364    310.50229 -0.030568503 
    7120    655097.08    99.798356    -102.2534    88.292315    86.199901    86.074794     102.2534 -0.030520877 
    7140       655590    99.903289   -263.35741    88.296653    86.205659    86.129575    263.35741 -0.030473251 
    7160    655415.87     100.0291   -300.75233     88.30099    86.204564    86.103562    300.75233 -0.030425624 
    7180    655552.89    100.00057   -330.77728    88.305328     86.22207    86.099848    330.77728 -0.030377998 
    7200    655523.55    99.911551   -411.60702    88.309665    86.241822    86.072048    411.60702 -0.030330372 
    7220    655752.23    99.711443   -400.52327    88.314003    86.243563    86.096108    400.52327 -0.030282746 
    7240    655645.88     99.95432   -255.94409     88.31834    86.237356    86.084113    255.94409  -0.03023512 
    7260    655662.22    99.826091   -287.46506    88.322677    86.212929     86.10642    287.46506 -0.030187493 
    7280    655555.53    99.983591   -191.33552    88.327015    86.181665    86.119411    191.33552 -0.030139867 
    7300    655430.53     100.1779    63.181904    88.331352    86.202171    86.078282   -63.181904 -0.030092241 
    7320    655486.25     100.6195   -141.40065     88.33569    86.198484    86.085054    141.40065 -0.030044615 
    7340    655329.73    100.23276    -161.9748    88.340027    86.136897    86.121804     161.9748 -0.029996989 
    7360    655367.43    100.54465   -103.90608    88.344364    86.123306    86.136122    103.90608 -0.029949362 
    7380    655032.06    100.51655   -175.26695    88.348702    86.098649     86.11247    175.26695 -0.029901736 
    7400     655095.5    100.21588   -493.98803    88.353039    86.117878    86.097353    493.98803  -0.02985411 
    7420    655326.26    100.11825   -452.60086    88.357377    86.112154    86.129179    452.60086 -0.029806484 
    7440    655146.23    100.23023   -469.02143    88.361714    86.072828     86.14063    469.02143 -0.029758857 
    7460    655256.72    99.864971   -353.23937    88.366051    86.041884    86.181912    353.23937 -0.029711231 
    7480    655282.81    100.26815   -462.32387    88.370389    86.039318    86.183684    462.32387 -0.029663605 
    7500    655120.69    99.918063   -435.87009    88.374726    86.042724    86.154722    435.87009 -0.029615979 
    7520    655118.17    99.914366   -153.99296    88.379064     86.06142    86.131447    153.99296 -0.029568353 
    7540    655319.67    100.02189   -175.97007    88.383401    86.064745    86.150382    175.97007 -0.029520726 
    7560    655644.52    99.500598   -43.499982    88.387738     86.08802    86.165556    43.499982   -0.0294731 
    7580    655347.38     99.54488   -98.080903    88.392076    86.072729    86.137578    98.080903 -0.029425474 
    7600     655437.5    99.315619     291.0333    88.396413    86.107252    86.110659    -291.0333 -0.029377848 
    7620    655749.15    99.699262    -71.63076    88.400751    86.135534     86.11909     71.63076 -0.029330222 
    7640    655971.45    99.911217   -157.30737    88.405088    86.137992    86.141601    157.30737 -0.029282595 
    7660    655972.96    99.708648   -50.902135    88.409426    86.097178    86.178406    50.902135 -0.029234969 
    7680    655801.29    99.991302   -258.92867    88.413763    86.078894    86.169925    258.92867 -0.029187343 
    7700    655929.08    99.440156   -99.781029      88.4181    86.089233    86.172138    99.781029 -0.029139717 
    7720    655940.39    99.792642   -444.01686    88.422438     86.12432    86.134292    444.01686 -0.029092091 
    7740    655840.47    99.800794   -313.08156    88.426775     86.10265    86.138619    313.08156 -0.029044464 
    7760    655498.84    99.635123   -33.611692    88.431113    86.055444    86.136752    33.611692 -0.028996838 
    7780    655801.85    100.16452   -468.80871     88.43545    86.074067    86.153698    468.80871 -0.028949212 
    7800    656215.03    99.628147   -137.86749    88.439787    86.120641    86.157131    137.86749 -0.028901586 
    7820    655742.33    100.24189   -52.911383    88.444125    86.089541    86.121947    52.911383 -0.028853959 
    7840    655694.61    100.28203    44.541837    88.448462    86.102363    86.098633   -44.541837 -0.028806333 
    7860    655859.69    99.902429   -115.94162      88.4528     86.11323    86.105219    115.94162 -0.028758707 
    7880    655792.18    100.56812   -180.40662    88.457137    86.098746    86.106617    180.40662 -0.028711081 
    7900    656104.85    99.990385   -52.270875    88.461474     86.12431    86.117878    52.270875 -0.028663455 
    7920     656031.9    99.889172   -258.66919    88.465812     86.11315    86.115239    258.66919 -0.028615828 
    7940    656025.44    100.27096   -387.68222    88.470149    86.131438    86.091887    387.68222 -0.028568202 
    7960    655884.16    100.28313   -503.54148    88.474487     86.11625    86.084306    503.54148 -0.028520576 
    7980    655920.55    100.24323    -303.4656    88.478824    86.100624    86.100484     303.4656  -0.02847295 
    8000    656054.42    100.36801   -360.06101    88.483161    86.069226    86.145251    360.06101 -0.028425324 
    8020    656074.14    99.648169   -465.37229    88.487499    86.059902     86.15295    465.37229 -0.028377697 
    8040    655850.27    99.970284   -133.71283    88.491836    86.039429    86.139824    133.71283 -0.028330071 
    8060    655968.03    99.896222   -364.58143    88.496174    86.041676    86.148818    364.58143 -0.028282445 
    8080    656032.48    99.979239   -93.446167    88.500511    86.013472    86.181308    93.446167 -0.028234819 
    8100    656031.35    99.961871   -218.39905    88.504849    85.989941    86.200518    218.39905 -0.028187193 
    8120    655847.68    99.773448   -237.13569    88.509186    86.004888    86.157186    237.13569 -0.028139566 
    8140    655687.39    100.23059   -129.73232    88.513523    86.019864    86.116912    129.73232  -0.02809194 
    8160     655757.5    99.903132   -364.62767    88.517861     86.02276    86.119001    364.62767 -0.028044314 
    8180    656077.33    100.16342   -209.24118    88.522198    86.029588    86.149944    209.24118 -0.027996688 
    8200    656120.16    100.40875    -528.4395    88.526536    86.028737    86.152199     528.4395 -0.027949062 
    8220    656054.47    99.693926   -414.93048    88.530873    85.990339    86.177817    414.93048 -0.027901435 
    8240    655709.64    100.00521   -364.74543     88.53521    85.973275    86.145397    364.74543 -0.027853809 
    8260    656112.52    99.708895   -394.53186    88.539548    85.989695    86.177645    394.53186 -0.027806183 
    8280    656049.92    99.894315   -425.84333    88.543885    85.973915    86.181016    425.84333 -0.027758557 
    8300    655700.25    99.862259    -362.5949    88.548223    85.948012     86.15682     362.5949  -0.02771093 
    8320    655729.27     99.81445   -15.853684     88.55256    85.968881    86.135499    15.853684 -0.027663304 
    8340    655698.93    99.832523   -157.86931    88.556897    86.003717    86.092409    157.86931 -0.027615678 
    8360    655863.19    99.854448    80.519264    88.561235    86.011783    86.101683   -80.519264 -0.027568052 
    8380    655786.89    99.675195    162.74726    88.565572    85.997286    86.101963   -162.74726 -0.027520426 
    8400    656047.61    99.678774    26.370688     88.56991    86.018154     86.11108   -26.370688 -0.027472799 
    8420    656464.27    100.51292   -78.534188    88.574247    86.060242    86.119413    78.534188 -0.027425173 
    8440    656426.84    100.14543   -142.76159    88.578585    86.056954    86.113576    142.76159 -0.027377547 
    8460    656488.88    100.03654   -166.71161    88.582922    86.054254      86.1202    166.71161 -0.027329921 
    8480    656834.86    100.06794   -546.64403    88.587259    86.039221    86.176422    546.64403 -0.027282295 
    8500    656660.26    100.53475   -427.39553    88.591597    86.024754    86.163784    427.39553 -0.027234668 
    8520    656725.55     100.0629   -335.08828    88.595934    86.027885    86.164997    335.08828 -0.027187042 
    8540    656781.44    99.896539   -454.05272    88.600272    86.028686    86.167309    454.05272 -0.027139416 
    8560    656947.98    100.20883   -201.94646    88.604609    86.038377    86.175232    201.94646  -0.02709179 
    8580     656474.9    100.61902   -62.530394    88.608946    86.007357    86.140017    62.530394 -0.027044164 
    8600    656181.38    100.31687   -44.330291    88.613284    85.966609    86.138098    44.330291 -0.026996537 
    8620     656423.1    99.817135   -12.498339    88.617621    85.971605    86.160604    12.498339 -0.026948911 
    8640    656589.91     100.1472   -103.77305    88.621959    86.000239    86.149588    103.77305 -0.026901285 
    8660    656457.03    100.12029   -43.344369    88.626296    86.013128    86.115031    43.344369 -0.026853659 
    8680    656103.39     100.1752   -74.092748    88.630633    85.966634    86.110975    74.092748 -0.026806032 
    8700    656081.09     100.0849   -177.23808    88.634971    85.934487    86.136046    177.23808 -0.026758406 
    8720    655897.68    99.525241   -292.89082    88.639308    85.934351    86.107888    292.89082  -0.02671078 
    8740    655933.23    99.818184   -327.44805    88.643646     85.93902    86.103663    327.44805 -0.026663154 
    8760    655849.27    99.217467   -361.91316    88.647983    85.900566    86.126967    361.91316 -0.026615528 
    8780    655659.41    99.975521   -315.32814     88.65232    85.871488    86.126977    315.32814 -0.026567901 
    8800    655845.26    99.882271      -388.83    88.656658    85.879224    86.139415       388.83 -0.026520275 
    8820    655723.96    99.457993   -406.39677    88.660995    85.878844    86.119651    406.39677 -0.026472649 
    8840     655755.1    99.576731   -228.61006    88.665333    85.891645    86.106693    228.61006 -0.026425023 
    8860    656324.12     99.62677   -309.09667     88.66967    85.950086    86.118599    309.09667 -0.026377397 
    8880    656475.55    99.768522   -308.13998    88.674008    85.950765    86.133576    308.13998  -0.02632977 
    8900    656238.71    99.814313    -261.9223    88.678345     85.91714    86.131985     261.9223 -0.026282144 
    8920    655990.62    99.263611   -226.75719    88.682682    85.914381    86.097976    226.75719 -0.026234518 
    8940    656217.88    100.26659   -189.21278     88.68702    85.920263    86.117696    189.21278 -0.026186892 
    8960    656467.08    100.57538   -281.78886    88.691357    85.901124    86.165379    281.78886 -0.026139266 
    8980    656466.11    100.57434   -503.14914    88.695695    85.880715    86.181515    503.14914 -0.026091639 
    9000    656107.13    100.03487   -379.69125    88.700032    85.832062    86.178997    379.69125 -0.026044013 
    9020    656100.11    100.47849   -547.26817    88.704369    85.786751    86.219377    547.26817 -0.025996387 
    9040    656597.05    100.65729   -637.92238    88.708707      85.8202    86.246833    637.92238 -0.025948761 
    9060    656283.05     100.1316   -266.48906    88.713044    85.833191    86.188326    266.48906 -0.025901134 
    9080    656386.16    99.901129   -620.94529    88.717382    85.852315    86.178453    620.94529 -0.025853508 
    9100    656325.41    100.34307   -327.22699    88.721719    85.824584    86.194105    327.22699 -0.025805882 
    9120    656066.95    99.992734   -191.78249    88.726056    85.785167    86.195536    191.78249 -0.025758256 
    9140    656094.32    100.24981   -0.7904703    88.730394    85.786257    86.193824    0.7904703  -0.02571063 
    9160    656422.35    100.31168   -97.742827    88.734731    85.820724    86.198072    97.742827 -0.025663003 
    9180    656619.29    100.05453   -150.12135    88.739069    85.845078    86.195257    150.12135 -0.025615377 
    9200    656487.48    100.53116    107.32376    88.743406    85.876163     86.14255   -107.32376 -0.025567751 
    9220    656769.75    99.590592   -127.13866    88.747743    85.877304    86.174232    127.13866 -0.025520125 
    9240    656955.86    99.796256   -284.15832    88.752081    85.855883    86.215943    284.15832 -0.025472499 
    9260    656798.48    100.12725   -321.48494    88.756418    85.863392    86.183539    321.48494 -0.025424872 
    9280    657067.23    99.888045   -377.53111    88.760756    85.889486    86.188398    377.53111 -0.025377246 
    9300    657290.41    99.916862   -407.40656    88.765093    85.867925    86.235108    407.40656  -0.02532962 
    9320    656851.51    99.745073   -387.30057    88.769431    85.824234    86.217183    387.30057 -0.025281994 
    9340    656774.37    99.396471   -321.39444    88.773768    85.845501    86.181491    321.39444 -0.025234368 
    9360    656873.34    99.980617    -449.0245    88.778105    85.866575    86.169113     449.0245 -0.025186741 
    9380    656625.06    99.893156   -86.268213    88.782443    85.834969     86.16405    86.268213 -0.025139115 
    9400    656568.09    100.31624   -27.412403     88.78678    85.833604    86.153736    27.412403 -0.025091489 
    9420    656492.84    99.938624    -94.61157    88.791118    85.831006    86.142261     94.61157 -0.025043863 
    9440    656110.05    100.10969    129.73642    88.795455     85.80933    86.109574   -129.73642 -0.024996237 
    9460    656503.67    100.22079   -163.26074    88.799792    85.833922    86.132341    163.26074  -0.02494861 
    9480    656492.26    99.893873   -155.78402     88.80413    85.855327    86.105164    155.78402 -0.024900984 
    9500    656145.17    99.890819   -72.919467    88.808467    85.842134    86.068664    72.919467 -0.024853358 
    9520    656588.79    100.24508   -256.60041    88.812805    85.868516    86.096188    256.60041 -0.024805732 
    9540    657024.91     100.2101   -686.21527    88.817142    85.870546    86.147131    686.21527 -0.024758105 
    9560    656929.39    100.57999   -514.58134    88.821479     85.89636    86.104516    514.58134 -0.024710479 
    9580    657189.22    100.09607   -388.97693    88.825817    85.939359    86.091269    388.97693 -0.024662853 
    9600    657206.97    100.37149   -613.29307    88.830154     85.92735    86.101422    613.29307 -0.024615227 
    9620    657194.17      100.876   -86.365969    88.834492    85.897096    86.125865    86.365969 -0.024567601 
    9640     657435.8    100.65966   -416.16998    88.838829    85.883185    86.167279    416.16998 -0.024519974 
    9660    657368.61    100.59607   -327.53539    88.843167    85.861372    86.176155    327.53539 -0.024472348 
    9680    657542.11    100.48141   -74.143388    88.847504     85.87583    86.180179    74.143388 -0.024424722 
    9700    658012.59     100.2098   -89.375419    88.851841    85.924489    86.188795    89.375419 -0.024377096 
    9720    657996.27    100.11661   -73.366066    88.856179    85.930947    86.175974    73.366066  -0.02432947 
    9740    657642.98    100.25183    -173.8264    88.860516    85.915382    86.141103     173.8264 -0.024281843 
    9760    657790.88    99.991056   -259.81075    88.864854    85.944469    86.127113    259.81075 -0.024234217 
    9780    657997.25    100.45188   -611.29916    88.869191     85.95485    86.139523    611.29916 -0.024186591 
    9800    657698.55    100.03494   -386.08075    88.873528    85.954529     86.09654    386.08075 -0.024138965 
    9820    657572.74    99.928197   -390.14417    88.877866     85.97279    86.057586    390.14417 -0.024091339 
    9840    657461.01    99.834068    -632.7384    88.882203     85.96061    86.050956     632.7384 -0.024043712 
    9860    657566.51    100.80391   -426.82249    88.886541      85.9566     86.06458    426.82249 -0.023996086 
    9880     657478.9    99.809085   -426.90873    88.890878    85.971635    86.033866    426.90873  -0.02394846 
    9900    657648.69    99.671123   -304.45742    88.895215    85.971157    86.052364    304.45742 -0.023900834 
    9920    657371.01    99.915869    -283.6975    88.899553    85.950654     86.03235     283.6975 -0.023853207 
    9940    657405.32    100.21284    -314.4454     88.90389    85.935857    86.047457     314.4454 -0.023805581 
    9960    657819.41    99.713574   -219.80322    88.908228    85.954414    86.078868    219.80322 -0.023757955 
    9980     657362.4    99.969416    -151.1412    88.912565    85.910847     86.05849     151.1412 -0.023710329 
   10000    657358.48    100.01585   -64.708309    88.916902    85.908288    86.056342    64.708309 -0.023662703 
   10020    657459.76    100.06278   -312.99919     88.92124    85.891405     86.08232    312.99919 -0.023615076 
   10040    657260.12     99.85025   -328.03168    88.925577    85.845013    86.098486    328.03168  -0.02356745 
   10060     657534.5    99.866943   -398.10612    88.929915    85.847815    86.127417    398.10612 -0.023519824 
   10080    657570.92     99.71204   -624.81258    88.934252    85.862831    86.112924    624.81258 -0.023472198 
   10100    657617.77     100.0576   -494.44421     88.93859    85.851748    86.125977    494.44421 -0.023424572 
   10120    657188.84    99.969307   -294.09594    88.942927    85.823022    86.094411    294.09594 -0.023376945 
   10140    657342.06    100.23577   -292.95335    88.947264    85.846161    86.087074    292.95335 -0.023329319 
   10160    657395.55     99.55899   -259.17789    88.951602    85.866079    86.069911    259.17789 -0.023281693 
   10180     657222.7    99.769029   -145.70489    88.955939    85.860032    86.049145    145.70489 -0.023234067 
   10200    656861.52    99.378803    100.15237    88.960277    85.833251    86.024496   -100.15237 -0.023186441 
   10220    656902.77    99.487121    -92.06673    88.964614    85.798102    86.060946     92.06673 -0.023138814 
   10240    657086.32    99.470696   -289.65313    88.968951     85.79755    86.081349    289.65313 -0.023091188 
   10260    657164.16    99.254408   -44.576852    88.973289    85.813861    86.070988    44.576852 -0.023043562 
   10280    656910.17    99.578538   -351.33881    88.977626    85.778773    86.068719    351.33881 -0.022995936 
   10300    657022.24    99.976015   -172.83079    88.981964    85.793878    86.064052    172.83079 -0.022948309 
   10320    657136.27    99.882386   -313.85927    88.986301    85.812361    86.056253    313.85927 -0.022900683 
   10340    657364.95    99.711805   -342.99761    88.990638    85.832351    86.061956    342.99761 -0.022853057 
   10360    657112.32     99.96912   -387.03934    88.994976    85.807586    86.049517    387.03934 -0.022805431 
   10380    657261.23    100.04613   -624.61854    88.999313    85.849392    86.022911    624.61854 -0.022757805 
   10400    657038.56    100.27558   -317.24164    89.003651    85.836171    86.002822    317.24164 -0.022710178 
   10420    657252.72    100.25946   -379.25101    89.007988    85.897224    85.965517    379.25101 -0.022662552 
   10440    657581.41    99.894168   -186.31799    89.012325    85.928503     85.97301    186.31799 -0.022614926 
   10460    657476.65    100.19406   -120.49063    89.016663    85.898439    85.985208    120.49063   -0.0225673 
   10480     657291.2    100.25778   -135.60899       89.021    85.873151     85.98208    135.60899 -0.022519674 
   10500    657415.16     99.84149   -98.331288    89.025338    85.883254     85.98399    98.331288 -0.022472047 
   10520    657793.17    100.61863   -179.52311    89.029675    85.894823    86.017651    179.52311 -0.022424421 
   10540    657252.54    100.05402   -172.53242    89.034013    85.852662    85.984974    172.53242 -0.022376795 
   10560    657231.79    99.855635   -568.64563     89.03835    85.848542    85.982197    568.64563 -0.022329169 
   10580    656876.87    99.558565   -439.94038    89.042687    85.836282    85.943851    439.94038 -0.022281543 
   10600    657067.14    100.47253   -307.65501    89.047025    85.853537    85.947282    307.65501 -0.022233916 
   10620    657659.37     100.6358   -673.18063    89.051362    85.872277    86.001784    673.18063  -0.02218629 
   10640    657418.79    100.13798   -475.48307      89.0557    85.879065    85.959342    475.48307 -0.022138664 
   10660    657241.41    99.952502   -508.28863    89.060037    85.878931    85.932098    508.28863 -0.022091038 
   10680    657380.55    99.801543   -463.58094    89.064374    85.887309    85.937722    463.58094 -0.022043412 
   10700    657526.17    99.945667   -567.23298    89.068712    85.848089    85.991839    567.23298 -0.021995785 
   10720    657518.11    99.628995   -481.96003    89.073049    85.828919    86.005803    481.96003 -0.021948159 
   10740    657222.95    99.735067    -212.3683    89.077387    85.813512    85.978444     212.3683 -0.021900533 
   10760    657098.77    99.551569   -191.56425    89.081724    85.805852    85.965686    191.56425 -0.021852907 
   10780    657223.43    99.468933   -78.691324    89.086061    85.803296    85.980369    78.691324  -0.02180528 
   10800    656921.77    99.214605   -48.131576    89.090399    85.821598    85.918394    48.131576 -0.021757654 
   10820    656990.89    99.642813   -107.87266    89.094736    85.821131    85.923718    107.87266 -0.021710028 
   10840    657099.24    99.525911   -448.18361    89.099074    85.828845    85.925982    448.18361 -0.021662402 
   10860    656862.44    99.141845   -556.81932    89.103411    85.789063    85.930665    556.81932 -0.021614776 
   10880    657259.31    99.837449   -561.96423    89.107749    85.819905    85.947499    561.96423 -0.021567149 
   10900    657484.22    99.377982     -858.746    89.112086    85.824879    85.967742      858.746 -0.021519523 
   10920    657365.13    100.03019   -384.53836    89.116423    85.814052    85.958832    384.53836 -0.021471897 
   10940    657562.71    99.651109   -464.93908    89.120761    85.777799    86.016822    464.93908 -0.021424271 
   10960    657649.94    99.881255   -376.43023    89.125098    85.761047     86.04085    376.43023 -0.021376645 
   10980    657597.14    100.38961   -186.88626    89.129436    85.779935    86.010812    186.88626 -0.021329018 
   11000    657839.75    99.731488   -95.439575    89.133773    85.817537    86.000659    95.439575 -0.021281392 
   11020     658114.1    99.932076   -172.95834     89.13811    85.850023    85.999783    172.95834 -0.021233766 
   11040    658037.89    99.630597     18.43888    89.142448    85.825832    86.009877    -18.43888  -0.02118614 
   11060    657735.07    100.33064    96.843917    89.146785    85.843042    85.948878   -96.843917 -0.021138514 
   11080    657926.57    100.04066   -251.44467    89.151123     85.86968     85.94305    251.44467 -0.021090887 
   11100    657872.84    100.40465   -62.482463     89.15546    85.876135    85.925392    62.482463 -0.021043261 
   11120    657765.35    99.902997   -251.92286    89.159797     85.85939    85.923928    251.92286 -0.020995635 
   11140    657957.27    100.09298   -588.87984    89.164135    85.880304    85.923887    588.87984 -0.020948009 
   11160    657950.43    100.09395    -476.2062    89.168472     85.86478    85.934348     476.2062 -0.020900382 
   11180    658002.46    100.06777   -191.96133     89.17281    85.862766     85.93898    191.96133 -0.020852756 
   11200    658298.35     99.68005   -538.82516    89.177147    85.869708    85.966493    538.82516  -0.02080513 
   11220    658419.44    99.815999   -290.30409    89.181484    85.871503    85.976326    290.30409 -0.020757504 
   11240    657987.29     100.2043   -53.783546    89.185822    85.845014    85.942229    53.783546 -0.020709878 
   11260    658252.24    99.900249   -134.05134    89.190159    85.850852    85.966807    134.05134 -0.020662251 
   11280    658376.39    100.28851   -105.19835    89.194497    85.839103    85.990608    105.19835 -0.020614625 
   11300    658049.82    100.45253   -250.43799    89.198834    85.777783    86.005213    250.43799 -0.020566999 
   11320    658103.91    100.15651     29.53746    89.203172    85.785796    86.000067    -29.53746 -0.020519373 
   11340    658131.24    100.13934   -387.81303    89.207509    85.815576    85.969614    387.81303 -0.020471747 
   11360     658145.5    99.744948   -495.36655    89.211846    85.821818    85.961044    495.36655  -0.02042412 
   11380       657846    99.794775   -84.129717    89.216184    85.783087     85.95654    84.129717 -0.020376494 
   11400    657762.21    99.524928   -538.94278    89.220521    85.776073    85.948441    538.94278 -0.020328868 
   11420    657775.24    99.580416   -474.87546    89.224859    85.790328    85.931685    474.87546 -0.020281242 
   11440    658076.48    99.737394   -511.05631    89.229196    85.834502    85.922617    511.05631 -0.020233616 
   11460    658146.66    100.22973   -638.82543    89.233533    85.830182    85.931928    638.82543 -0.020185989 
   11480    658212.64    99.400492   -560.82866    89.237871    85.790283    85.976332    560.82866 -0.020138363 
   11500    657906.36    99.485342   -350.37359    89.242208     85.75606    85.966444    350.37359 -0.020090737 
   11520    658065.88    99.670011   -156.63284    89.246546    85.799972    85.939103    156.63284 -0.020043111 
   11540    658293.96    99.532633   -474.06618    89.250883    85.814869    85.949787    474.06618 -0.019995484 
   11560    658349.45    99.793628     -88.9905     89.25522     85.79531     85.97245      88.9905 -0.019947858 
   11580    658269.87    99.395787   -398.70133    89.259558    85.792257     85.96094    398.70133 -0.019900232 
   11600    658250.77    99.851307   -363.29689    89.263895    85.836826    85.909638    363.29689 -0.019852606 
   11620    658040.79    99.914849   -223.18615    89.268233    85.824403    85.890492    223.18615  -0.01980498 
   11640    658299.67    100.02438   -337.37857     89.27257    85.821833    85.922681    337.37857 -0.019757353 
   11660    658159.27    99.845643   -432.26779    89.276907    85.794181    85.927866    432.26779 -0.019709727 
   11680     658086.6    100.27163   -640.35094    89.281245    85.784193    85.924208    640.35094 -0.019662101 
   11700    658016.01    100.17001   -491.99225    89.285582    85.771047    85.923986    491.99225 -0.019614475 
   11720    658439.74    100.48347   -555.27289     89.28992    85.802932    85.943192    555.27289 -0.019566849 
   11740    658495.32    100.38843    -660.9721    89.294257    85.803363    85.945839     660.9721 -0.019519222 
   11760    658255.77    99.694772   -537.38963    89.298595    85.775968    85.937838    537.38963 -0.019471596 
   11780    658378.57    100.14183   -305.87887    89.302932    85.796935    85.928691    305.87887  -0.01942397 
   11800    658925.38    100.01002    -205.6536    89.307269    85.864517    85.928195     205.6536 -0.019376344 
   11820    659118.31     100.5055    -326.2375    89.311607    85.873701     85.93999     326.2375 -0.019328718 
   11840    658753.59    100.05841    248.58692    89.315944    85.855511    85.906461   -248.58692 -0.019281091 
   11860    658913.32    100.09546   -36.505489    89.320282    85.877787     85.90083    36.505489 -0.019233465 
   11880    659020.56    100.07141   -332.58926    89.324619     85.91484    85.873588    332.58926 -0.019185839 
   11900    658719.29    100.28109   -64.341987    89.328956    85.891528    85.853458    64.341987 -0.019138213 
   11920    658400.65    100.06225   -195.74241    89.333294    85.836675    85.862597    195.74241 -0.019090587 
   11940    658687.29     99.48017   -390.55249    89.337631    85.824015    85.908477    390.55249  -0.01904296 
   11960    658507.77    99.372276   -757.79243    89.341969     85.79239    85.912552    757.79243 -0.018995334 
   11980    657961.13    99.856116   -64.948632    89.346306    85.737378    85.892143    64.948632 -0.018947708 
   12000    658701.27    100.06446   -538.31787    89.350643    85.786954    85.934898    538.31787 -0.018900082 
   12020    658587.98    99.505036    -469.2053    89.354981    85.757777    85.945179     469.2053 -0.018852455 
   12040    658420.46    99.962902   -176.02319    89.359318    85.758386    85.918537    176.02319 -0.018804829 
   12060    658456.92    99.336992   -398.20234    89.363656    85.802627    85.874823    398.20234 -0.018757203 
   12080    658677.43    99.933367   -2.0203229    89.367993    85.802399     85.89964    2.0203229 -0.018709577 
   12100    658440.47    99.989769   -203.94405    89.372331    85.756219    85.910809    203.94405 -0.018661951 
   12120    658779.06    99.867425   -53.318158    89.376668    85.767043    85.939969    53.318158 -0.018614324 
   12140    658649.15    99.967049    -333.2841    89.381005    85.759137    85.926772     333.2841 -0.018566698 
   12160    658198.57    99.739208   -204.09548    89.385343    85.706541    85.916516    204.09548 -0.018519072 
   12180    658298.17    99.942143   -208.45162     89.38968     85.69175     85.94018    208.45162 -0.018471446 
   12200    658534.07    100.00829   -608.13899    89.394018    85.671206    85.987419    608.13899  -0.01842382 
   12220    658349.64    100.05439   -468.30829    89.398355    85.664412    85.965984    468.30829 -0.018376193 
   12240    658517.93     99.69085   -389.31319    89.402692    85.692099    85.956005    389.31319 -0.018328567 
   12260    658387.27    99.950996   -490.40028     89.40703     85.66928    85.957671    490.40028 -0.018280941 
   12280    658587.87    99.922231    -413.8429    89.411367    85.684923    85.963993     413.8429 -0.018233315 
   12300    658853.09    100.11455   -185.41949    89.415705    85.727746    85.951484    185.41949 -0.018185689 
   12320    659253.18    100.22702   -353.22395    89.420042    85.793585     85.93351    353.22395 -0.018138062 
   12340    659084.14    100.15468   -337.52484    89.424379    85.788801    85.912099    337.52484 -0.018090436 
   12360    658932.39    99.792251   -254.95354    89.428717    85.785747     85.89121    254.95354  -0.01804281 
   12380    659175.86    99.828604   -318.82436    89.433054    85.808262    85.896234    318.82436 -0.017995184 
   12400    658692.99    99.723688   -339.87062    89.437392    85.774103     85.86333    339.87062 -0.017947557 
   12420    658836.32     100.2219   -250.49961    89.441729    85.777752    85.874196    250.49961 -0.017899931 
   12440    658893.53    100.30037   -353.30814    89.446066    85.787651    85.867579    353.30814 -0.017852305 
   12460    658782.06    100.01601   -676.64895    89.450404    85.765354    85.871209    676.64895 -0.017804679 
   12480    658517.87    100.40166   -298.78626    89.454741    85.720799    85.877222    298.78626 -0.017757053 
   12500    658861.72    99.914793   -415.21435    89.459079    85.717341    85.921365    415.21435 -0.017709426 
   12520    658802.65    100.28644   -514.71127    89.463416    85.707582    85.919278    514.71127   -0.0176618 
   12540     658222.6    100.44628   -436.04886    89.467754    85.656947     85.89021    436.04886 -0.017614174 
   12560    658308.63    100.18492   -361.28355    89.472091     85.66774     85.88645    361.28355 -0.017566548 
   12580    658121.54    101.00227   -321.23532    89.476428    85.649942    85.875721    321.23532 -0.017518922 
   12600    658503.09    100.19042   -419.48855    89.480766    85.662534    85.908712    419.48855 -0.017471295 
   12620    658325.29    100.46651   -101.11195    89.485103    85.645718    85.898216    101.11195 -0.017423669 
   12640    657876.63    100.34534   -174.99037    89.489441    85.657272    85.823936    174.99037 -0.017376043 
   12660    657669.03    100.04749   -201.60355    89.493778    85.690952    85.758975    201.60355 -0.017328417 
   12680    657880.43    100.17749   -200.79032    89.498115    85.678998    85.794352    200.79032 -0.017280791 
   12700    657888.43    99.902794   -232.42279    89.502453    85.656243    85.814029    232.42279 -0.017233164 
   12720    657962.77       99.832   -121.92469     89.50679    85.671026    85.804757    121.92469 -0.017185538 
   12740    658235.99    100.05337   -549.49498    89.511128    85.718991    85.788199    549.49498 -0.017137912 
   12760    657868.52    99.638624   -436.83894    89.515465    85.684672    85.770491    436.83894 -0.017090286 
   12780    658029.75    99.814405   -464.63354    89.519802    85.670303    85.801743    464.63354 -0.017042659 
   12800     658454.7    99.963568   -421.38597     89.52414    85.668451     85.85485    421.38597 -0.016995033 
   12820    658465.23    99.494235    -302.5173    89.528477    85.677486     85.84301     302.5173 -0.016947407 
   12840    658298.08    99.316503   -324.53563    89.532815    85.649261    85.845341    324.53563 -0.016899781 
   12860    658516.49    99.500741   -409.55983    89.537152    85.635417    85.883545    409.55983 -0.016852155 
   12880    658999.79    99.907543   -477.07632    89.541489    85.670355    85.907364    477.07632 -0.016804528 
   12900    659013.17    100.01368   -26.202737    89.545827    85.658422    85.916916    26.202737 -0.016756902 
   12920    659055.82    100.05518   -378.27588    89.550164    85.665745     85.91097    378.27588 -0.016709276 
   12940    659024.49     99.64023   -217.15524    89.554502    85.715978    85.852381    217.15524  -0.01666165 
   12960    658865.59    100.42705    16.621354    89.558839    85.697482    85.846049   -16.621354 -0.016614024 
   12980     659353.7    99.945007   -402.37162    89.563177    85.727638    85.875267    402.37162 -0.016566397 
   13000    659313.51    100.22128   -364.67925    89.567514    85.736371    85.857128    364.67925 -0.016518771 
   13020    659208.73    99.990954   -365.11997    89.571851    85.721582    85.854136    365.11997 -0.016471145 
[...]
  396740    1241825.2    100.08174    75.008087     172.7894    84.360791    85.192768   -75.008087   0.89728531 
  396760    1241379.4    100.26679    49.802957    172.79373    84.335853    85.185234   -49.802957   0.89733294 
  396780    1241274.8    100.32036    127.95805    172.79807    84.368202    85.143254   -127.95805   0.89738057 
  396800    1241501.9    100.52919    112.12466    172.80241    84.393946    85.130721   -112.12466   0.89742819 
  396820    1241770.4    100.31123   -73.949222    172.80675    84.414562    85.126197    73.949222   0.89747582 
  396840      1241871    100.08212   -86.138267    172.81108      84.4132    85.132333    86.138267   0.89752344 
  396860    1242677.8    100.09214   -159.71243    172.81542    84.445872    85.152545    159.71243   0.89757107 
  396880      1242577    99.819559   -282.60422    172.81976    84.430465    85.159037    282.60422    0.8976187 
  396900    1242016.6    99.492907   -225.68501     172.8241    84.400059     85.14916    225.68501   0.89766632 
  396920    1242351.8     99.91968   -189.67861    172.82843    84.401482    85.168565    189.67861   0.89771395 
  396940    1242923.5    100.03557   -135.48145    172.83277    84.412453    85.194544    135.48145   0.89776158 
  396960    1242266.4    99.708558   -42.388963    172.83711    84.393303    85.166687    42.388963    0.8978092 
  396980    1242605.3    99.354787   -1.6235858    172.84145    84.417831     85.16303    1.6235858   0.89785683 
  397000    1242724.9    99.984692   -13.306002    172.84578    84.418216    85.168706    13.306002   0.89790445 
  397020    1242371.3    100.06539    95.843135    172.85012    84.391082    85.169707   -95.843135   0.89795208 
  397040    1242987.1    99.662704    141.55361    172.85446      84.4181    85.182518   -141.55361   0.89799971 
  397060    1243272.7    100.27791   -70.994147     172.8588    84.443156    85.174667    70.994147   0.89804733 
  397080    1242426.4    100.06879    -107.5291    172.86313    84.433182    85.124609     107.5291   0.89809496 
  397100      1242491    99.678663   -222.80821    172.86747    84.404649    85.155678    222.80821   0.89814258 
  397120    1242991.4    99.923576   -309.44026    172.87181    84.414081    85.178314    309.44026   0.89819021 
  397140    1242294.8    99.663201   -201.27054    172.87615    84.393459    85.149247    201.27054   0.89823784 
  397160    1241861.9    100.05852   -182.45179    172.88048    84.379627    85.131392    182.45179   0.89828546 
  397180    1241197.8    100.23223   -144.33298    172.88482    84.355583    85.107985    144.33298   0.89833309 
  397200    1240344.7     100.3213    34.913507    172.88916    84.273606    85.130086   -34.913507   0.89838072 
  397220    1240252.3    100.58339    114.02714     172.8935    84.256852    85.138536   -114.02714   0.89842834 
  397240    1240180.5    99.912024    112.41807    172.89783    84.288072    85.099932   -112.41807   0.89847597 
  397260    1240037.2    100.41201    124.82222    172.90217    84.306264    85.069605   -124.82222   0.89852359 
  397280    1239758.3    100.22861    143.09494    172.90651    84.307613    85.046981   -143.09494   0.89857122 
  397300    1240470.2    100.28696   -98.607125    172.91084    84.328599    85.072502    98.607125   0.89861885 
  397320    1241376.4    100.67288   -167.93008    172.91518    84.368371    85.092382    167.93008   0.89866647 
  397340    1241185.4    100.11156   -191.00466    172.91952    84.378053    85.067394    191.00466    0.8987141 
  397360    1241905.5    101.02635   -279.02131    172.92386    84.414729    85.077638    279.02131   0.89876173 
  397380    1241936.5    100.78247   -183.87451    172.92819    84.423295    85.068989    183.87451   0.89880935 
  397400    1242142.1    100.57297   -77.912063    172.93253    84.434569    85.069578    77.912063   0.89885698 
  397420    1242433.1    100.58836   -99.764004    172.93687    84.437563    85.084357    99.764004    0.8989046 
  397440    1242963.5    100.43679   -93.461463    172.94121    84.469395     85.08647    93.461463   0.89895223 
  397460    1242352.2     100.6158   -32.151068    172.94554    84.421877    85.090355    32.151068   0.89899986 
  397480    1241672.5     100.9564    59.818796    172.94988    84.413117    85.050498   -59.818796   0.89904748 
  397500    1241376.2    100.22742     75.06866    172.95422     84.43182    85.009231    -75.06866   0.89909511 
  397520    1241352.1    100.35159   -64.008671    172.95856    84.423195    85.014137    64.008671   0.89914274 
  397540    1240394.5    99.880328   -95.617297    172.96289    84.378065    84.991858    95.617297   0.89919036 
  397560    1240558.8    100.04051   -101.11435    172.96723    84.404242    84.974621    101.11435   0.89923799 
  397580    1241041.1    100.25473   -284.48979    172.97157    84.402029    85.007756    284.48979   0.89928561 
  397600    1241056.4    100.24807   -234.68649    172.97591    84.373245    85.035675    234.68649   0.89933324 
  397620    1240760.5    100.02618   -153.17485    172.98024    84.372109    85.014411    153.17485   0.89938087 
  397640    1240696.1    99.956821   -63.273737    172.98458    84.382565    84.997331    63.273737   0.89942849 
  397660    1241173.4    100.34023   -77.678961    172.98892    84.416988    84.993227    77.678961   0.89947612 
  397680      1242020    100.41295   -112.34355    172.99326    84.431922    85.034029    112.34355   0.89952374 
  397700      1241745    99.965448    78.910256    172.99759    84.408137    85.037023   -78.910256   0.89957137 
  397720    1241296.2    99.358593     62.99452    173.00193    84.401616    85.010723    -62.99452     0.899619 
  397740    1242076.2    100.10589   -152.55229    173.00627    84.432659    85.030736    152.55229   0.89966662 
  397760    1242545.1    99.992935   -75.028071    173.01061    84.420254    85.073202    75.028071   0.89971425 
  397780      1243399    99.877746   -35.788341    173.01494    84.432776    85.116905    35.788341   0.89976188 
  397800    1243793.6    99.570585   -248.77356    173.01928    84.453064     85.12133    248.77356    0.8998095 
  397820    1243788.3    99.260258   -278.24705    173.02362     84.44075    85.131246    278.24705   0.89985713 
  397840    1243701.9    99.829863   -67.636377    173.02795    84.420883    85.143229    67.636377   0.89990475 
  397860    1244400.5    99.680101   -86.258255    173.03229    84.433192    85.176504    86.258255   0.89995238 
  397880    1244789.3    99.864762   -91.357636    173.03663    84.462156    85.171764    91.357636   0.90000001 
  397900    1244547.8    99.833314   -85.311823    173.04097    84.447293     85.16809    85.311823   0.90004763 
  397920    1244218.4    99.557722     30.96826     173.0453    84.422541    85.168376    -30.96826   0.90009526 
  397940    1244250.7    99.665106    106.08769    173.04964    84.398861    85.192354   -106.08769   0.90014289 
  397960    1244588.2    100.34805    14.774746    173.05398    84.363263     85.24928   -14.774746   0.90019051 
  397980    1244160.1    100.11952    82.665571    173.05832    84.346307    85.234955   -82.665571   0.90023814 
  398000    1243405.1    100.45546   -13.869675    173.06265    84.330189    85.197372    13.869675   0.90028576 
  398020    1243617.7    100.05316   -194.78272    173.06699    84.329349    85.210653    194.78272   0.90033339 
  398040    1244163.3    99.878236   -200.42561    173.07133    84.306419     85.26909    200.42561   0.90038102 
  398060    1243490.3    100.40515   -140.52616    173.07567    84.311819    85.215371    140.52616   0.90042864 
  398080    1244185.1    100.02715   -174.28717       173.08    84.383616    85.188302    174.28717   0.90047627 
  398100    1244859.5    100.49682   -206.98676    173.08434    84.409832    85.205868    206.98676    0.9005239 
  398120    1243675.8    100.73601   -81.749079    173.08868    84.345225    85.187922    81.749079   0.90057152 
  398140    1243538.7    100.36113    181.20772    173.09302      84.3199    85.201977   -181.20772   0.90061915 
  398160    1244893.2    100.38537     61.62504    173.09735    84.389144    85.222661    -61.62504   0.90066677 
  398180    1244827.9    99.919743   -49.652932    173.10169    84.398064    85.207051    49.652932    0.9007144 
  398200    1244142.3    100.34153     126.3567    173.10603    84.381965    85.174235    -126.3567   0.90076203 
  398220    1244420.9    99.518145    23.010065    173.11037    84.363392    85.209924   -23.010065   0.90080965 
  398240    1244295.1    99.698767   -193.44682     173.1147    84.357773    85.204851    193.44682   0.90085728 
  398260    1243326.2    100.21386   -169.56249    173.11904    84.333172     85.16121    169.56249    0.9009049 
  398280    1243018.4    99.785583   -3.7833116    173.12338    84.369988    85.100841    3.7833116   0.90095253 
  398300    1243402.4    99.659144   -175.46306    173.12772    84.372162    85.122807    175.46306   0.90100016 
  398320    1242526.1    99.868858   -58.768301    173.13205     84.33613    85.097028    58.768301   0.90104778 
  398340    1242624.1    100.18579   -75.361651    173.13639    84.359521    85.078007    75.361651   0.90109541 
  398360    1242728.9    100.28388   -24.029734    173.14073    84.359595    85.082978    24.029734   0.90114304 
  398380    1242871.9    99.733627   -68.060826    173.14506    84.357286    85.092965    68.060826   0.90119066 
  398400    1243475.5    99.931047   -84.176018     173.1494    84.379098    85.110148    84.176018   0.90123829 
  398420    1243684.2    100.23158   -39.565942    173.15374    84.388295    85.113024    39.565942   0.90128591 
  398440    1243118.8    99.944965   -26.464131    173.15808    84.312737    85.148442    26.464131   0.90133354 
  398460    1243478.5    99.694071    -37.62434    173.16241    84.334322    85.149142     37.62434   0.90138117 
  398480    1243912.9    99.548886    -205.4397    173.16675    84.370672    85.140062     205.4397   0.90142879 
  398500    1243129.6     99.93646   -57.864559    173.17109    84.360083    85.094994    57.864559   0.90147642 
  398520    1243332.8    100.11837   -77.977128    173.17543    84.341908    85.125114    77.977128   0.90152405 
  398540    1243886.6    100.07937   -185.84834    173.17976    84.364935    85.137653    185.84834   0.90157167 
  398560    1243157.5    99.957005   -151.63846     173.1841    84.364246     85.08631    151.63846    0.9016193 
  398580    1242834.3    99.856986   -69.336119    173.18844    84.393383     85.03269    69.336119   0.90166692 
  398600    1243037.7    100.16414   -63.049817    173.19278    84.396438    85.041399    63.049817   0.90171455 
  398620      1242906    100.39252   -78.410445    173.19711    84.342938    85.084197    78.410445   0.90176218 
  398640    1242648.3    99.965603   0.17471901    173.20145    84.316082    85.091524  -0.17471901    0.9018098 
  398660    1242835.9    100.09066   -51.398784    173.20579    84.309622    85.108759    51.398784   0.90185743 
  398680    1242700.7    100.09898   -211.08569    173.21013    84.324481     85.08237    211.08569   0.90190506 
  398700    1242650.2    99.748854   -69.451474    173.21446     84.34129    85.059828    69.451474   0.90195268 
  398720    1243472.7    100.06182   -82.693335     173.2188    84.333889    85.121466    82.693335   0.90200031 
  398740    1243323.8    100.10324   -29.529993    173.22314    84.292963    85.150467    29.529993   0.90204793 
  398760    1243528.1    99.970445    -42.32581    173.22748     84.28318    85.172208     42.32581   0.90209556 
  398780    1243730.8    100.48552   -103.74511    173.23181    84.329103     85.13757    103.74511   0.90214319 
  398800    1243724.7    99.973061   -65.920902    173.23615    84.344529    85.119453    65.920902   0.90219081 
  398820    1243907.9    100.29886   -51.533795    173.24049    84.346882    85.127482    51.533795   0.90223844 
  398840    1244253.3    100.37121   -77.295481    173.24483    84.355286    85.140506    77.295481   0.90228606 
  398860    1244671.4    100.52804   -178.40629    173.24916    84.414914    85.106823    178.40629   0.90233369 
  398880    1244297.2    99.943975   -114.83703     173.2535    84.406951    85.087131    114.83703   0.90238132 
  398900    1244456.8    99.953214   -74.553735    173.25784    84.433291     85.06937    74.553735   0.90242894 
  398920      1244740    99.870343    31.654474    173.26217    84.451376    85.068379   -31.654474   0.90247657 
  398940      1244567    100.11232   -121.49568    173.26651     84.45378    85.052006    121.49568    0.9025242 
  398960    1243862.1    99.959024     64.27929    173.27085    84.429869    85.025775    -64.27929   0.90257182 
  398980    1244367.1    99.864511    33.761363    173.27519    84.452162    85.035715   -33.761363   0.90261945 
  399000      1244818    100.08419   -96.890256    173.27952    84.451874    85.064689    96.890256   0.90266707 
  399020    1244113.1    99.920728    134.30502    173.28386    84.380867    85.085934   -134.30502    0.9027147 
  399040    1244339.6    99.865091   -70.936745     173.2882     84.36356    85.116752    70.936745   0.90276233 
  399060    1245102.7    99.499411   -80.851359    173.29254    84.393093    85.137013    80.851359   0.90280995 
  399080    1244801.2    100.17705   -60.004123    173.29687    84.389765    85.117623    60.004123   0.90285758 
  399100    1244440.2    99.567439   -127.83861    173.30121     84.37887      85.1018    127.83861   0.90290521 
  399120    1244954.8    99.519183   -196.48114    173.30555    84.390973    85.122649    196.48114   0.90295283 
  399140    1244858.2    99.726673   -210.22961    173.30989    84.344475    85.160832    210.22961   0.90300046 
  399160    1243930.8    99.961276   -53.046844    173.31422    84.278047    85.162334    53.046844   0.90304808 
  399180    1244992.5    99.270032   -172.05133    173.31856    84.310218    85.200362    172.05133   0.90309571 
  399200      1245495    99.817249   -202.18105     173.3229     84.32187    85.220843    202.18105   0.90314334 
  399220    1244571.4    100.24034    85.863806    173.32724    84.264376    85.213619   -85.863806   0.90319096 
  399240    1244509.8    100.74785    39.829667    173.33157    84.228751    85.243307   -39.829667   0.90323859 
  399260    1245003.2    99.887513   -53.903086    173.33591    84.234236    85.269416    53.903086   0.90328622 
  399280    1244918.5    100.28641    25.611307    173.34025     84.23353    85.262192   -25.611307   0.90333384 
  399300    1244702.9    99.977021   -17.378048    173.34459    84.248306    85.230347    17.378048   0.90338147 
  399320    1245605.8    100.28133   -205.22635    173.34892    84.299278    85.238465    205.22635   0.90342909 
  399340    1245331.9     100.0603   -70.502827    173.35326    84.313235     85.20348    70.502827   0.90347672 
  399360    1245474.9     100.2219   -81.757899     173.3576    84.318315       85.206    81.757899   0.90352435 
  399380    1245830.1    100.18633   -137.70563    173.36194    84.338523    85.207748    137.70563   0.90357197 
  399400    1245730.4    100.25426   -166.15982    173.36627    84.351685      85.1855    166.15982    0.9036196 
  399420      1245060    99.720044   -13.792079    173.37061    84.330244    85.159173    13.792079   0.90366723 
  399440    1245782.3    100.29826   -60.228251    173.37495    84.331196    85.205488    60.228251   0.90371485 
  399460    1245869.5    99.908118   -102.31463    173.37929    84.317272    85.223391    102.31463   0.90376248 
  399480    1245707.4    100.38529    -85.49898    173.38362    84.333152    85.194126     85.49898    0.9038101 
  399500    1245467.5    100.41425   -110.39652    173.38796    84.357623    85.150876    110.39652   0.90385773 
  399520    1244798.6     100.3178   -44.262027     173.3923    84.351514    85.109184    44.262027   0.90390536 
  399540    1244134.4    99.801866   -56.096141    173.39663    84.307103    85.106451    56.096141   0.90395298 
  399560    1244429.7    99.761667   -93.756876    173.40097    84.290918    85.140866    93.756876   0.90400061 
  399580    1244466.2    99.718261   -228.66445    173.40531    84.296742    85.135351    228.66445   0.90404823 
  399600    1243986.6    100.27168   -164.82582    173.40965    84.273485      85.1239    164.82582   0.90409586 
  399620      1244084    99.937731   -115.08694    173.41398    84.286485    85.115306    115.08694   0.90414349 
  399640    1244680.1    99.335113   -189.45123    173.41832    84.313287     85.12689    189.45123   0.90419111 
  399660    1245354.8    99.826835   -50.208069    173.42266    84.363878    85.119823    50.208069   0.90423874 
  399680    1245036.3     99.91345   -33.148221      173.427    84.361877    85.097943    33.148221   0.90428637 
  399700    1244931.2    100.02185    12.183178    173.43133    84.362426    85.088078   -12.183178   0.90433399 
  399720    1245632.4    100.02013    137.61565    173.43567    84.362961    85.133339   -137.61565   0.90438162 
  399740      1245603    100.14429    -3.760277    173.44001    84.357277    85.134932     3.760277   0.90442924 
  399760    1245551.2    99.780644   -36.479287    173.44435     84.37564    85.110735    36.479287   0.90447687 
  399780    1245539.4    99.894841   -45.244031    173.44868    84.359638    85.123948    45.244031    0.9045245 
  399800    1245061.5    99.456327   -106.49243    173.45302    84.303009    85.146317    106.49243   0.90457212 
  399820    1245261.1    100.02209   -287.35447    173.45736     84.28981    85.171174    287.35447   0.90461975 
  399840    1245141.3    100.28684   -269.68608     173.4617    84.291737    85.158898    269.68608   0.90466738 
  399860    1244562.7    99.785559   -177.14354    173.46603    84.270491    85.138658    177.14354     0.904715 
  399880    1244121.6    100.15898    -180.4274    173.47037    84.207476    85.170042     180.4274   0.90476263 
  399900    1243812.7     99.71846    -9.872791    173.47471    84.179485     85.17508     9.872791   0.90481025 
  399920    1244384.2    100.71702    90.362249    173.47905     84.20518    85.186086   -90.362249   0.90485788 
  399940    1243875.5    100.29558    65.851997    173.48338     84.21595    85.138244   -65.851997   0.90490551 
  399960    1244393.2    100.50504    45.237758    173.48772    84.230571     85.15676   -45.237758   0.90495313 
  399980    1244643.9    100.34506    31.863833    173.49206    84.246369     85.15582   -31.863833   0.90500076 
  400000    1244161.8    99.472466    44.313894     173.4964    84.227631    85.139644   -44.313894   0.90504839 
Loop time of 30957.4 on 64 procs for 400000 steps with 64040 atoms

Performance: 1.116 ns/day, 21.498 hours/ns, 12.921 timesteps/s
99.9% CPU use with 64 MPI tasks x 1 OpenMP threads

MPI task timing breakdown:
Section |  min time  |  avg time  |  max time  |%varavg| %total
---------------------------------------------------------------
Pair    | 1643.4     | 7268.7     | 12141      |3798.0 | 23.48
Bond    | 124.1      | 498.36     | 736.29     | 883.4 |  1.61
Kspace  | 943.08     | 6057.7     | 12064      |4415.4 | 19.57
Neigh   | 16054      | 16195      | 16324      |  58.7 | 52.32
Comm    | 533.45     | 699.1      | 858.62     | 334.1 |  2.26
Output  | 6.9631     | 7.0935     | 7.4588     |   3.6 |  0.02
Modify  | 180.91     | 208.3      | 248.8      | 124.9 |  0.67
Other   |            | 22.74      |            |       |  0.07

Nlocal:        1000.62 ave        1925 max           0 min
Histogram: 14 1 1 6 9 8 6 2 1 16
Nghost:        9980.27 ave       18694 max         290 min
Histogram: 11 5 0 0 5 27 0 0 0 16
Neighs:       741346.0 ave 1.66929e+06 max           0 min
Histogram: 16 1 3 13 7 6 2 0 3 13

Total # of neighbors = 47446140
Ave neighs/atom = 740.88289
Ave special neighs/atom = 5.8719550
Neighbor list builds = 400000
Dangerous builds not checked
Total wall time: 8:36:01
