LAMMPS (29 Oct 2020)
OMP_NUM_THREADS environment is not set. Defaulting to 1 thread. (../comm.cpp:94)
  using 1 OpenMP thread(s) per MPI task
####################################################
#    This program is free software: you can redistribute it and/or modify
#    it under the terms of the GNU General Public License as published by
#    the Free Software Foundation, either version 3 of the License, or
#    (at your option) any later version.
#
#    This program is distributed in the hope that it will be useful,
#    but WITHOUT ANY WARRANTY; without even the implied warranty of
#    MERCHANTABILITY or FITNESS FOR A PARTICULAR PURPOSE.  See the
#    GNU General Public License for more details.


units		real        ## defines the units style used herein. More information: https://docs.lammps.org/units.html
atom_style	full        ## defines the atom style used herein. More information: https://docs.lammps.org/atom_style.html

# Styles
pair_style      lj/cut/coul/long 15.0 10.0      ## sets the formula(s) LAMMPS uses to compute pairwise interactions; here, lennard-jones (LJ) with long-range Coulomb interaction. More: https://docs.lammps.org/pair_lj_cut_coul.html
pair_modify     shift no                        ## the shift keyword determines whether a Lennard-Jones potential is shifted at its cutoff to 0.0. More: https://docs.lammps.org/pair_modify.html
kspace_style    pppm 1.0e-4                     ## defines a long-range solver for LAMMPS to compute long-range Coulombic interactions. Note: requires use of a matching pair style, i.e. PPPM with coul/long. More: https://docs.lammps.org/kspace_style.html
bond_style      harmonic                        ## defined based off the forcefield used to construct the system; models the atoms' interactions
angle_style     harmonic
dihedral_style  opls
improper_style  cvff
special_bonds   lj 0 0 1 coul 0 0 1

read_data       100K_PS.lmps      ## input lammps datafile, equilibriated until structure nears experimental properties
Reading data file ...
  orthogonal box = (56.625901 56.625901 56.625901) to (143.37410 143.37410 143.37410)
  4 by 4 by 4 MPI processor grid
  reading atoms ...
  64040 atoms
  reading velocities ...
  64040 velocities
  scanning bonds ...
  2 = max bonds/atom
  scanning angles ...
  6 = max angles/atom
  scanning dihedrals ...
  12 = max dihedrals/atom
  scanning impropers ...
  3 = max impropers/atom
  reading bonds ...
  68020 bonds
  reading angles ...
  119880 angles
  reading dihedrals ...
  191660 dihedrals
  reading impropers ...
  51880 impropers
Finding 1-2 1-3 1-4 neighbors ...
  special bond factors lj:    0.0      0.0      1.0     
  special bond factors coul:  0.0      0.0      1.0     
     4 = max # of 1-2 neighbors
     8 = max # of 1-3 neighbors
    12 = max # of special neighbors
  special bonds CPU = 1.720 seconds
  read_data CPU = 3.542 seconds

dielectric      1.0
neighbor    	1.0 bin
neigh_modify	delay 0 every 1 check no        ## this is to make sure that the neighbor list is updated every timestep, and the atoms don't get lost as the system is being deformed ##

timestep	    1.0                             ## unit = fs, per "real" unit style
run_style       verlet                          ## defines algorithm used for simulation computation; verlet integration is a numerical method used to integrate Newton's equations of motion.

variable stress equal press*-1                         ## computes stress as the negative of press values
variable engStrain equal (lx-91.07191)/91.07191      ## computes engineering strain; lx_0 must be found and inputted manually (for now)

thermo		    20                                                               ## output log data (headers in thermo_style), recorded at every timestep in numList.txt
thermo_style    custom step vol temp press lx ly lz v_stress v_engStrain         ## data headers of output log file. More: https://docs.lammps.org/thermo_style.html

################# Deformation ##################

fix 1 all npt temp 100 100 100 y 1 1 100.0 z 1 1 100.0      ## stress normal to the x direction can vary; external pressure (y and z) = 1atm ##

fix 2 all deform 1 x scale 2.0 remap x                      ## sets a uniaxial (x-direction) deformation in motion, scaling a set amount (here, 4.0x) the initial length


################# Dumping ##################

reset_timestep 0

dump dump2 all custom 2000 sim.lammpstrj id mol type q xs ys zs ix iy iz

restart 4000 PS.restart

run 		40000              ## this depends on the overall strain rate, where strain rate = deformScale / runTimeSteps (consider units!)
PPPM initialization ...
WARNING: System is not charge neutral, net charge = -8.9366436e-05 (../kspace.cpp:313)
  using 12-bit tables for long-range coulomb (../kspace.cpp:328)
  G vector (1/distance) = 0.20679655
  grid = 24 24 24
  stencil order = 5
  estimated absolute RMS force accuracy = 0.021807597
  estimated relative force accuracy = 6.5672931e-05
  using double precision FFTW3
  3d grid and FFT values/proc = 1331 216
Neighbor list info ...
  update every 1 steps, delay 0 steps, check no
  max neighbors/atom: 2000, page size: 100000
  master list distance cutoff = 16
  ghost atom cutoff = 16
  binsize = 8, bins = 11 11 11
  1 neighbor lists, perpetual/occasional/extra = 1 0 0
  (1) pair lj/cut/coul/long, perpetual
      attributes: half, newton on
      pair build: half/bin/newton
      stencil: half/bin/3d/newton
      bin: standard
Per MPI rank memory allocation (min/avg/max) = 18.50 | 18.92 | 19.30 Mbytes
Step Volume Temp Press Lx Ly Lz v_stress v_engStrain 
       0    652801.85      100.312     14228.52    86.748198    86.748198    86.748198    -14228.52 -0.047475807 
      20    657250.48    102.63443    48.274409    86.791572    87.021011    87.022035   -48.274409 -0.046999545 
      40    658803.71    102.67814    85.827733    86.834946    87.096008    87.109044   -85.827733 -0.046523283 
      60     655546.4    102.74508   -673.22856     86.87832    86.851562    86.878915    673.22856 -0.046047021 
      80    652985.98    102.12527    106.53045    86.921694    86.641981    86.705631   -106.53045 -0.045570759 
     100    652560.38    102.29358    460.74914    86.965068    86.618925    86.628954   -460.74914 -0.045094497 
     120    649902.94    102.10634   -524.76806    87.008442    86.422964    86.428695    524.76806 -0.044618235 
     140     651051.9    102.30972    683.40356    87.051816    86.476444    86.484833   -683.40356 -0.044141973 
     160    651573.81    101.99891   -721.90861     87.09519    86.501001    86.486498    721.90861 -0.043665711 
     180    651699.86    101.79926   -160.09143    87.138564    86.501024    86.460149    160.09143 -0.043189449 
     200    651894.67    101.21363    -85.55653    87.181939    86.471658    86.472322     85.55653 -0.042713186 
     220    652116.07    101.54832   -414.26485    87.225313    86.435557    86.494787    414.26485 -0.042236924 
     240    653032.69    101.20956    270.36549    87.268687     86.46375    86.545085   -270.36549 -0.041760662 
     260    652245.08    100.84956   -412.26737    87.312061    86.407783    86.453725    412.26737   -0.0412844 
     280    652877.36    101.14234    93.113354    87.355435    86.442822    86.459504   -93.113354 -0.040808138 
     300    653004.51    100.53944   -289.43542    87.398809    86.432145    86.444104    289.43542 -0.040331876 
     320    652936.44    100.42759   -5.2432892    87.442183    86.395156    86.429205    5.2432892 -0.039855614 
     340    653548.73     100.0481    18.773915    87.485557    86.414312    86.448196   -18.773915 -0.039379352 
     360    653309.93    100.23067   -604.37963    87.528931    86.402272    86.385822    604.37963  -0.03890309 
     380    654019.27    100.46327    94.036588    87.572305    86.449429    86.389635   -94.036588 -0.038426828 
     400    653618.54    100.43833   -147.59925     87.61568    86.394449    86.348876    147.59925 -0.037950566 
     420       654238    99.658286   -106.62483    87.659054    86.390866    86.391529    106.62483 -0.037474303 
     440    653778.03    99.929753   -76.616556    87.702428    86.318743    86.360192    76.616556 -0.036998041 
     460     653743.2    99.769873   -240.43623    87.745802    86.270449    86.361222    240.43623 -0.036521779 
     480    654523.23    99.814991   -418.22429    87.789176     86.29702    86.394938    418.22429 -0.036045517 
     500    653702.08    100.10304    -580.2453     87.83255    86.203934    86.337067     580.2453 -0.035569255 
     520    654351.89    99.674873    -229.1818    87.875924    86.226515    86.357611     229.1818 -0.035092993 
     540    654386.06    99.515871   -772.42688    87.919298    86.213759    86.332287    772.42688 -0.034616731 
     560    654702.25     99.74952   -262.11119    87.962672    86.219721    86.325441    262.11119 -0.034140469 
     580    654754.12    99.578976   -519.12175    88.006046    86.196368    86.313108    519.12175 -0.033664207 
     600    654646.23    100.00347   -532.46469     88.04942    86.147711    86.305094    532.46469 -0.033187945 
     620    655029.28    99.525217   -496.36976    88.092795    86.169775    86.290973    496.36976 -0.032711682 
     640    654835.84    99.637707   -472.56129    88.136169    86.130834    86.262019    472.56129  -0.03223542 
     660    655848.42    99.792354   -323.00355    88.179543    86.187484    86.296152    323.00355 -0.031759158 
     680    655245.25    100.05611   -523.07437    88.222917    86.108452    86.253492    523.07437 -0.031282896 
     700    655361.79    99.687404   -24.885839    88.266291    86.119929    86.214949    24.885839 -0.030806634 
     720    656204.68    99.884277   -147.44053    88.309665    86.120733    86.282629    147.44053 -0.030330372 
     740    655873.97    99.994273   -257.87628    88.353039    86.078337    86.239262    257.87628  -0.02985411 
     760    655890.65    99.880115    -125.7364    88.396413    86.050943    86.226579     125.7364 -0.029377848 
     780    655438.64     100.1472     -178.421    88.439787    86.031325    86.144537      178.421 -0.028901586 
     800    656219.42    100.03227    34.474825    88.483161    86.070119    86.166022   -34.474825 -0.028425324 
     820    656414.85    100.16305   -337.64176    88.526536    86.043885     86.17572    337.64176 -0.027949062 
     840    656303.52    99.890064   -73.348536     88.56991    86.000248    86.162607    73.348536 -0.027472799 
     860    656880.09    100.68316   -257.05294    88.613284    86.021477    86.174817    257.05294 -0.026996537 
     880    656518.24     100.2803   -616.76428    88.656658    85.984671    86.122059    616.76428 -0.026520275 
     900    657223.23    100.20644   -147.69517    88.700032    86.005524    86.151488    147.69517 -0.026044013 
     920    657036.32    100.69251   -455.91732    88.743406     85.97174     86.11872    455.91732 -0.025567751 
     940    657270.17    100.42094   -467.96021     88.78678    85.940008     86.13908    467.96021 -0.025091489 
     960    657207.33    100.42983   -197.67264    88.830154    85.905511    86.123358    197.67264 -0.024615227 
     980    657480.92    100.65701   -482.38832    88.873528    85.889139    86.133576    482.38832 -0.024138965 
    1000     657837.7    99.967719   -140.76206    88.916902    85.893584     86.13382    140.76206 -0.023662703 
    1020    657732.41    99.972896    -369.0789    88.960277    85.893718    86.077911     369.0789 -0.023186441 
    1040    658189.26    100.30787   -167.07082    89.003651    85.872958    86.116534    167.07082 -0.022710178 
    1060    658130.75    100.30458    35.302183    89.047025     85.83846    86.101526   -35.302183 -0.022233916 
    1080    658575.31    99.762889   -372.53235    89.090399    85.849642    86.106522    372.53235 -0.021757654 
    1100    658839.03    99.803837   -247.21625    89.133773    85.864453    86.084234    247.21625 -0.021281392 
    1120    658653.33     99.44852   -439.40185    89.177147    85.840921    86.041693    439.40185  -0.02080513 
    1140    659218.68    99.953312   -220.47082    89.220521    85.845024    86.069568    220.47082 -0.020328868 
    1160    659128.14    99.838947    -340.5223    89.263895    85.796852    86.064226     340.5223 -0.019852606 
    1180    659379.54    99.884351   -454.20256    89.307269    85.800582    86.051496    454.20256 -0.019376344 
    1200    659371.03    99.893181   -275.23937    89.350643    85.790623    86.018597    275.23937 -0.018900082 
    1220    659665.74    99.674279   -680.41428    89.394018    85.788619    86.017298    680.41428  -0.01842382 
    1240     659888.3    99.748525   -536.67881    89.437392    85.776792    86.016448    536.67881 -0.017947557 
    1260    659712.61    99.745025   -680.26936    89.480766    85.755424     85.97328    680.26936 -0.017471295 
    1280    660172.06    100.19168   -637.06963     89.52414    85.793602    85.953207    637.06963 -0.016995033 
    1300    660216.19    99.958017   -550.36812    89.567514    85.764094    85.946886    550.36812 -0.016518771 
    1320    660501.59    99.896531   -921.72001    89.610888    85.747424    85.959129    921.72001 -0.016042509 
    1340    660448.49    99.845433   -508.39959    89.654262    85.746856    85.911204    508.39959 -0.015566247 
    1360    660579.14    99.569292   -615.56543    89.697636    85.776707    85.856758    615.56543 -0.015089985 
    1380    660977.65    99.919156    -611.4734     89.74101    85.789303    85.854424     611.4734 -0.014613723 
    1400    660718.83    100.16396   -545.70767    89.784384    85.758905    85.809753    545.70767 -0.014137461 
    1420    660805.16    100.09395   -561.61613    89.827759    85.715101    85.823362    561.61613 -0.013661199 
    1440    660891.55    99.893715   -289.95821    89.871133    85.698063    85.810214    289.95821 -0.013184937 
    1460    661207.18    100.18415   -659.90595    89.914507    85.713172    85.794654    659.90595 -0.012708674 
    1480    661177.39    100.15953   -195.71327    89.957881    85.681693    85.780927    195.71327 -0.012232412 
    1500    661160.29    100.30206   -234.67141    90.001255    85.643751    85.775354    234.67141  -0.01175615 
    1520       661336     100.0748   -630.62474    90.044629    85.627208    85.773389    630.62474 -0.011279888 
    1540    661052.63    100.36083   -442.13327    90.088003    85.572787    85.749856    442.13327 -0.010803626 
    1560    661476.59    100.26249   -742.11597    90.131377    85.595465    85.740836    742.11597 -0.010327364 
    1580    661744.93    100.35463   -793.90847    90.174751    85.601648    85.728167    793.90847 -0.0098511018 
    1600    661231.44    100.65243   -655.25775    90.218125    85.556342    85.665803    655.25775 -0.0093748397 
    1620    661215.28    100.52556   -580.92324      90.2615    85.524139    85.654784    580.92324 -0.0088985777 
    1640    661600.37    100.30667   -833.68217    90.304874    85.515613    85.672045    833.68217 -0.0084223156 
    1660    661633.63    99.844809   -531.77526    90.348248    85.534529    85.616283    531.77526 -0.0079460535 
    1680    661494.69    100.67743   -226.25593    90.391622    85.506564    85.585211    226.25593 -0.0074697914 
    1700    662060.11    100.13405   -472.40726    90.434996    85.528566    85.595259    472.40726 -0.0069935293 
    1720    662386.09    100.29983   -348.48686     90.47837    85.510132    85.614802    348.48686 -0.0065172672 
    1740    662228.05    99.660888   -151.94817    90.521744    85.497655    85.565847    151.94817 -0.0060410051 
    1760    662577.35    99.782075   -158.33267    90.565118    85.523713    85.543907    158.33267 -0.005564743 
    1780    663180.21    100.08667   -755.18337    90.608492    85.568808    85.535652    755.18337 -0.0050884809 
    1800    663182.32     99.79856   -160.68717    90.651866    85.537073    85.526718    160.68717 -0.0046122188 
    1820    663158.78    99.451075    -390.6445    90.695241    85.515602    85.504244     390.6445 -0.0041359567 
    1840     663343.6    99.449804   -835.96993    90.738615    85.492225    85.510565    835.96993 -0.0036596946 
    1860    663462.84    99.778327   -489.52698    90.781989    85.481629    85.495671    489.52698 -0.0031834325 
    1880    663574.39    100.01598   -614.06202    90.825363    85.459269    85.491572    614.06202 -0.0027071704 
    1900    663545.59    99.545552   -446.37781    90.868737    85.439778    85.466548    446.37781 -0.0022309083 
    1920    663609.15    99.613768   -890.41726    90.912111    85.443935    85.429798    890.41726 -0.0017546462 
    1940    663776.78    100.19331   -633.08217    90.955485    85.440598    85.413966    633.08217 -0.0012783841 
    1960    663906.06    100.36414   -416.23126    90.998859    85.430572    85.399901    416.23126 -0.00080212201 
    1980     663880.1    100.14842   -548.20623    91.042233    85.381033    85.405402    548.20623 -0.00032585992 
    2000    664313.76    100.55781   -417.63642    91.085607    85.387476    85.414049    417.63642 0.00015040218 
    2020    664453.18    99.929987   -794.07069    91.128982    85.394922    85.383868    794.07069 0.00062666427 
    2040    664347.96    99.972164   -691.22887    91.172356    85.366916    85.357727    691.22887 0.0011029264 
    2060     664815.4    100.54034   -793.48714     91.21573    85.358114    85.385971    793.48714 0.0015791885 
    2080    664941.58    100.58512   -769.55303    91.259104    85.322189    85.397528    769.55303 0.0020554506 
    2100    664851.82    100.50166   -797.84316    91.302478     85.31302    85.354611    797.84316 0.0025317127 
    2120     664765.8    100.02166   -824.94691    91.345852    85.246149    85.369959    824.94691 0.0030079748 
    2140    664982.29    100.50627   -655.95298    91.389226    85.236401    85.366991    655.95298 0.0034842369 
    2160    665251.94    99.995153   -979.48829      91.4326    85.223185    85.374332    979.48829 0.0039604989 
    2180    665367.57    100.12581   -678.68045    91.475974    85.247725    85.324114    678.68045  0.004436761 
    2200    665203.53    99.791283   -548.78783    91.519348    85.201022    85.309387    548.78783 0.0049130231 
    2220    665200.64    99.841089   -819.52284    91.562723    85.168752    85.300913    819.52284 0.0053892852 
    2240    665422.76    100.15983   -553.48966    91.606097    85.167334    85.290415    553.48966 0.0058655473 
    2260    665563.09    99.328339   -683.65467    91.649471    85.185328    85.250015    683.65467 0.0063418094 
    2280    666073.89    99.739256   -837.81148    91.692845    85.196985    85.263417    837.81148 0.0068180715 
    2300    666273.58    99.974489   -709.88897    91.736219    85.189729    85.255915    709.88897 0.0072943336 
    2320    666280.63    99.951772   -668.65095    91.779593    85.146011     85.26028    668.65095 0.0077705957 
    2340    666513.46    100.24337   -774.49828    91.822967    85.137702    85.258105    774.49828 0.0082468578 
    2360    666791.74    100.03957   -903.02187    91.866341    85.118908    85.272255    903.02187 0.0087231199 
    2380    667260.09    99.918774   -929.59671    91.909715    85.122956    85.287824    929.59671  0.009199382 
    2400    667298.66    100.09037   -1001.2866    91.953089    85.077977    85.297592    1001.2866 0.0096756441 
    2420    667294.51    99.739199   -1001.5719    91.996463    85.073333    85.261501    1001.5719  0.010151906 
    2440    667457.84    100.07211   -657.63823    92.039838      85.0806    85.234899    657.63823  0.010628168 
    2460    667759.88    100.33408   -800.32604    92.083212    85.104219    85.209649    800.32604   0.01110443 
    2480    668331.02    99.962065   -873.80393    92.126586    85.079592    85.267051    873.80393  0.011580692 
    2500    668242.18    99.891652   -581.47997     92.16996    85.062654    85.232565    581.47997  0.012056955 
    2520    667969.48    99.963611   -453.07234    92.213334    85.018674     85.20176    453.07234  0.012533217 
    2540    667904.76     100.2833   -538.88008    92.256708    85.015949    85.156182    538.88008  0.013009479 
    2560    668129.88    100.09888   -456.92776    92.300082    84.994146    85.166695    456.92776  0.013485741 
    2580    668316.75    100.54692   -403.26221    92.343456    84.976244    85.168439    403.26221  0.013962003 
    2600    668509.73     100.7696   -449.97319     92.38683    84.944595    85.184761    449.97319  0.014438265 
    2620    668618.84    100.80077   -587.33385    92.430204    84.931184    85.172132    587.33385  0.014914527 
    2640    668840.68    100.01641   -537.36999    92.473579    84.938642    85.152951    537.36999  0.015390789 
    2660    669273.82    100.52554   -790.58068    92.516953    84.934775    85.172026    790.58068  0.015867051 
    2680    669049.04    100.66636   -697.89224    92.560327    84.880654    85.157786    697.89224  0.016343313 
    2700    669175.41    100.60731   -937.03417    92.603701    84.858683    85.156018    937.03417  0.016819576 
    2720    669654.11    100.73929   -903.66073    92.647075    84.871243    85.164434    903.66073  0.017295838 
    2740    669867.28    100.01677   -566.02036    92.690449    84.849883    85.173115    566.02036    0.0177721 
    2760     669975.2    100.22353   -915.51127    92.733823    84.840179    85.156732    915.51127  0.018248362 
    2780    669897.01    100.07661   -691.97558    92.777197    84.796797    85.150527    691.97558  0.018724624 
    2800    669676.68    100.87948   -603.67172    92.820571    84.770605    85.109033    603.67172  0.019200886 
    2820    670006.26    100.70467    -574.2578    92.863945    84.799336    85.082311     574.2578  0.019677148 
    2840    670002.89    99.985791   -695.79029     92.90732    84.790735    85.050789    695.79029   0.02015341 
    2860    669949.73    99.976453   -773.96201    92.950694    84.763238    85.031931    773.96201  0.020629672 
    2880    669989.83    99.703101   -646.69674    92.994068    84.732732     85.02796    646.69674  0.021105934 
    2900    670723.99     100.2048   -943.85036    93.037442    84.771685    85.042353    943.85036  0.021582197 
    2920    670956.09    99.863138    -834.4907    93.080816    84.796039    85.007717     834.4907  0.022058459 
    2940    671057.66    99.506429    -815.6782     93.12419    84.778325    84.998741     815.6782  0.022534721 
    2960    670990.83    99.944442   -873.35412    93.167564    84.728508    85.000658    873.35412  0.023010983 
    2980    671258.85    99.929276   -803.47701    93.210938    84.742142    84.981366    803.47701  0.023487245 
    3000    671480.39    99.634392   -983.42148    93.254312    84.738443    84.973583    983.42148  0.023963507 
    3020    671413.79    99.797748   -918.43523    93.297686    84.716688    84.947463    918.43523  0.024439769 
    3040    671583.93    100.10246   -814.67791    93.341061    84.688898    84.957375    814.67791  0.024916031 
    3060     671558.4    100.51017   -802.86848    93.384435    84.698455    84.905105    802.86848  0.025392293 
    3080    672348.32    100.11256   -806.19193    93.427809    84.726424    84.937462    806.19193  0.025868555 
    3100    672607.08    99.968093   -739.15494    93.471183    84.701553    84.955661    739.15494  0.026344817 
    3120    672757.49    100.11765   -687.26726    93.514557    84.663418    84.973504    687.26726   0.02682108 
    3140    673025.64    99.844165   -1105.4812    93.557931    84.689706    84.941588    1105.4812  0.027297342 
    3160    673386.45    100.04191   -951.59941    93.601305    84.702975    84.934435    951.59941  0.027773604 
    3180    673550.84    99.976753   -907.40313    93.644679    84.680852    84.938005    907.40313  0.028249866 
    3200    673840.33     98.95632   -1145.0018    93.688053    84.667042    84.949024    1145.0018  0.028726128 
    3220     673792.7    99.331907   -1119.4783    93.731427    84.665202    84.905558    1119.4783   0.02920239 
    3240     673933.9     99.56014    -887.3874    93.774802    84.685839    84.863385     887.3874  0.029678652 
    3260    674057.57    99.500699   -910.07742    93.818176    84.674894    84.850684    910.07742  0.030154914 
    3280    674938.42    99.764971   -839.48492     93.86155    84.698491    84.898644    839.48492  0.030631176 
    3300    674837.77     99.48415    -956.5598    93.904924    84.667544    84.877789     956.5598  0.031107438 
    3320    674630.54    99.885873   -711.87601    93.948298    84.638157    84.841997    711.87601  0.031583701 
    3340    674533.46    99.820971   -541.26813    93.991672    84.626468    84.802353    541.26813  0.032059963 
    3360    675075.96    99.826601   -973.89179    94.035046    84.640834    84.817012    973.89179  0.032536225 
    3380    675407.76    99.505859   -558.63676     94.07842    84.634048    84.826376    558.63676  0.033012487 
    3400    675202.62    100.09892   -632.18314    94.121794     84.59054     84.80513    632.18314  0.033488749 
    3420     675427.3    100.34756   -753.12682    94.165168    84.569762    84.815107    753.12682  0.033965011 
    3440    675489.35    100.42309   -781.09632    94.208543    84.554334    84.799315    781.09632  0.034441273 
    3460    675603.83    100.42062   -937.22549    94.251917    84.545992    84.783021    937.22549  0.034917535 
    3480    675720.26    100.53225   -599.29628    94.295291    84.531517    84.773141    599.29628  0.035393797 
    3500    676006.59    100.75484   -881.17064    94.338665    84.538489    84.763079    881.17064  0.035870059 
    3520    675843.01    100.07958   -923.09277    94.382039    84.508465    84.733717    923.09277  0.036346321 
    3540    675924.09    100.38165   -848.53598    94.425413    84.486535    84.726943    848.53598  0.036822584 
    3560    676266.45    100.36875   -880.84078    94.468787    84.521967    84.695417    880.84078  0.037298846 
    3580     676376.5    100.17186   -683.74427    94.512161    84.549976    84.642275    683.74427  0.037775108 
    3600    676389.84    99.918395   -808.51019    94.555535     84.53197    84.623138    808.51019   0.03825137 
    3620    676623.29    100.58612   -619.10024    94.598909    84.525901    84.619606    619.10024  0.038727632 
    3640    676948.41    99.600593   -691.54285    94.642284    84.523686    84.623686    691.54285  0.039203894 
    3660    676871.52    100.42799   -607.41689    94.685658    84.473642    84.625417    607.41689  0.039680156 
    3680    677476.38    99.916696   -869.97301    94.729032    84.493629    84.642231    869.97301  0.040156418 
    3700    677591.27    99.814913   -598.75071    94.772406    84.481097    84.630392    598.75071   0.04063268 
    3720    677510.72    100.18969   -538.91447     94.81578    84.453484    84.609277    538.91447  0.041108942 
    3740    678382.14    100.14173   -1170.5753    94.859154    84.470233    84.662574    1170.5753  0.041585205 
    3760    678757.82    99.823621   -1028.0393    94.902528     84.46926    84.671718    1028.0393  0.042061467 
    3780    678328.96    99.978412   -886.44819    94.945902    84.417451    84.631473    886.44819  0.042537729 
    3800    678765.71    100.17231   -897.83247    94.989276    84.430868    84.633843    897.83247  0.043013991 
    3820    679338.12    99.945387   -1153.7231     95.03265    84.466581    84.630758    1153.7231  0.043490253 
    3840    679412.03    99.959459   -980.12658    95.076025    84.465986    84.601948    980.12658  0.043966515 
    3860    679464.85    99.946162   -799.45075    95.119399    84.429592    84.606398    799.45075  0.044442777 
    3880    679838.69    99.711142   -1068.8421    95.162773    84.415573    84.628417    1068.8421  0.044919039 
    3900    679921.17     100.4422    -929.9866    95.206147    84.377439    84.638359     929.9866  0.045395301 
    3920    679827.86    99.750565   -837.57454    95.249521    84.345728    84.620009    837.57454  0.045871563 
    3940    680303.22    100.33054    -845.6398    95.292895    84.375114    84.611157     845.6398  0.046347826 
    3960    680898.03    100.18137   -991.98871    95.336269    84.401582    84.620063    991.98871  0.046824088 
    3980    680814.52    99.741781   -818.37382    95.379643    84.359262    84.613634    818.37382   0.04730035 
    4000    680975.19    99.589305   -828.56419    95.423017    84.365035    84.589343    828.56419  0.047776612 
    4020    680973.64     99.75705    -1053.168    95.466391     84.37387    84.541865     1053.168  0.048252874 
    4040     681145.9    99.465958   -911.22958    95.509765    84.385237    84.513462    911.22958  0.048729136 
    4060     681352.6    99.475523   -1247.8045     95.55314    84.426888    84.459046    1247.8045  0.049205398 
    4080    681529.66     99.43253   -975.45977    95.596514    84.436915    84.432637    975.45977   0.04968166 
    4100    681316.53    99.733484   -1079.8547    95.639888    84.414469    84.390386    1079.8547  0.050157922 
    4120    681342.29    99.593174   -932.79024    95.683262    84.410525    84.359262    932.79024  0.050634184 
    4140    681703.32    99.509545   -682.71716    95.726636    84.411227    84.365017    682.71716  0.051110446 
    4160    682251.59    99.412854   -1007.9881     95.77001    84.397339    84.408517    1007.9881  0.051586709 
    4180    682261.01    99.508463   -568.16727    95.813384    84.389845    84.378963    568.16727  0.052062971 
    4200    682370.21    99.987621   -805.31187    95.856758    84.386543    84.357583    805.31187  0.052539233 
    4220    682739.39    99.678339   -824.66747    95.900132    84.396152    84.355443    824.66747  0.053015495 
    4240    683228.16    100.10191   -913.89547    95.943506     84.36829    84.405535    913.89547  0.053491757 
    4260    683256.44    99.923076    -1044.947    95.986881    84.368816     84.37036     1044.947  0.053968019 
    4280    683304.25    100.02347   -1102.1278    96.030255    84.364114    84.342854    1102.1278  0.054444281 
    4300    683589.68     100.1576   -1272.6875    96.073629    84.360241    84.343864    1272.6875  0.054920543 
    4320    683606.49    99.870699   -693.01565    96.117003    84.322466    84.345644    693.01565  0.055396805 
    4340    684052.64    100.54897   -1155.1187    96.160377     84.35924    84.325846    1155.1187  0.055873067 
    4360     683911.5    100.00846   -993.86144    96.203751    84.317736    84.311917    993.86144   0.05634933 
    4380    684218.97    100.49491     -668.287    96.247125    84.329468     84.30008      668.287  0.056825592 
    4400    684331.76    99.944298   -858.95958    96.290499    84.333073    84.272394    858.95958  0.057301854 
    4420    684801.94    100.13592   -612.94743    96.333873    84.362639    84.262784    612.94743  0.057778116 
    4440    684578.92    100.50865   -794.47203    96.377247    84.298017    84.261977    794.47203  0.058254378 
    4460    684308.77    100.45251   -436.12695    96.420622    84.267321    84.221504    436.12695   0.05873064 
    4480    684900.35    100.54138   -924.07227    96.463996    84.296113    84.227632    924.07227  0.059206902 
    4500    684940.16    100.38959   -787.83126     96.50737    84.275042    84.215722    787.83126  0.059683164 
    4520    685197.39    100.09241   -777.84464    96.550744    84.255781    84.228752    777.84464  0.060159426 
    4540    685627.84    100.21566    -998.1035    96.594118    84.275409      84.2242     998.1035  0.060635688 
    4560     685711.2    100.51094    -1019.328    96.637492    84.298216    84.173853     1019.328  0.061111951 
    4580     685779.2    100.17104   -1115.9446    96.680866    84.282636    84.159989    1115.9446  0.061588213 
    4600    685979.59    99.743341   -954.07095     96.72424    84.275756    84.153699    954.07095  0.062064475 
    4620    686484.48    100.33904   -1037.3524    96.767614     84.28337    84.170286    1037.3524  0.062540737 
    4640    686169.14    100.32832   -883.12707    96.810988    84.264797    84.112463    883.12707  0.063016999 
    4660    686579.32    100.45827   -830.14184    96.854363    84.256831    84.133007    830.14184  0.063493261 
    4680    686737.33    99.865269   -998.80175    96.897737    84.229576    84.141918    998.80175  0.063969523 
    4700    686882.58    99.697725   -829.44555    96.941111    84.179645    84.171956    829.44555  0.064445785 
    4720    687086.38    99.955365   -888.17018    96.984485    84.148591    84.190332    888.17018  0.064922047 
    4740     687205.7    99.931757   -906.70469    97.027859    84.128288    84.187623    906.70469  0.065398309 
    4760    687098.68     100.1118   -782.84055    97.071233    84.099463     84.16574    782.84055  0.065874571 
    4780    687119.99    99.759897   -991.68704    97.114607    84.068795    84.161449    991.68704  0.066350834 
    4800    687643.43    100.20184   -877.26468    97.157981    84.087063    84.169672    877.26468  0.066827096 
    4820    687530.61    99.220204   -1058.8137    97.201355    84.088446    84.116926    1058.8137  0.067303358 
    4840    687631.21    100.16749   -1004.2427    97.244729     84.06581    84.114353    1004.2427   0.06777962 
    4860     688217.9    99.996057    -1110.933    97.288104    84.080176    84.134209     1110.933  0.068255882 
    4880    688418.04    100.40158   -1008.0211    97.331478    84.069955    84.131399    1008.0211  0.068732144 
    4900    688690.21    100.06425   -1129.8968    97.374852    84.080761     84.11636    1129.8968  0.069208406 
    4920    688513.88    99.890532   -894.67472    97.418226    84.056331    84.081811    894.67472  0.069684668 
    4940    688786.93    100.19311     -796.258      97.4616    84.036194    84.097869      796.258   0.07016093 
    4960    689313.47    99.762627   -1197.6767    97.504974    84.031232    84.129685    1197.6767  0.070637192 
    4980    689415.96    99.889274   -905.84909    97.548348     84.02952    84.106494    905.84909  0.071113455 
    5000    689863.91    98.961166   -939.21991    97.591722     84.05097    84.102269    939.21991  0.071589717 
    5020    689750.34    99.279938   -900.89388    97.635096    84.037045    84.064995    900.89388  0.072065979 
    5040    689952.23    99.678739   -863.12567     97.67847    84.027714    84.061594    863.12567  0.072542241 
    5060    690080.95    99.420408   -978.64765    97.721845    83.991092    84.076603    978.64765  0.073018503 
    5080    690408.54    99.603082    -905.0619    97.765219    83.964469    84.105855     905.0619  0.073494765 
    5100    690515.68     99.56174   -847.43665    97.808593    83.931659    84.114472    847.43665  0.073971027 
    5120    690526.03    99.825085   -1068.6473    97.851967    83.927549    84.082566    1068.6473  0.074447289 
    5140    691067.66    99.973368   -1198.1563    97.895341    83.954408    84.084325    1198.1563  0.074923551 
    5160    690791.63    99.856088   -898.76906    97.938715    83.907416    84.060568    898.76906  0.075399813 
    5180    691061.83    99.781126    -872.5937    97.982089    83.891483    84.072186     872.5937  0.075876075 
    5200    691594.89    99.624739   -915.77918    98.025463    83.898361    84.092913    915.77918  0.076352338 
    5220    691725.99    99.979024   -814.82771    98.068837    83.886739    84.083301    814.82771    0.0768286 
    5240    691917.69    100.05615   -794.37333    98.112211    83.872783     84.08341    794.37333  0.077304862 
    5260    692147.61    100.35095   -665.07009    98.155586    83.888925    84.058005    665.07009  0.077781124 
    5280    692787.59    99.996599   -981.85634     98.19896    83.918843    84.068583    981.85634  0.078257386 
    5300    692693.37    100.17924   -755.70867    98.242334    83.896092    84.042823    755.70867  0.078733648 
    5320    692911.53    100.05648   -880.77143    98.285708    83.912811    84.015449    880.77143   0.07920991 
    5340    693081.49    100.50579    -811.4261    98.329082     83.92653    83.985256     811.4261  0.079686172 
    5360    693233.78    100.22728   -1011.2106    98.372456    83.913719    83.979491    1011.2106  0.080162434 
    5380    693433.51    100.23159   -927.40326     98.41583    83.880961    83.999455    927.40326  0.080638696 
    5400    693591.95     100.3647   -917.66826    98.459204    83.852634    84.010005    917.66826  0.081114959 
    5420    693893.08     100.0401   -1141.3405    98.502578    83.854118    84.007984    1141.3405  0.081591221 
    5440    694178.13    100.16635   -1127.1425    98.545952    83.868372    83.991227    1127.1425  0.082067483 
    5460    694814.23    100.09656   -1093.0523    98.589327    83.891792    84.007747    1093.0523  0.082543745 
    5480    694570.95    100.21005   -816.78412    98.632701    83.852576    83.980659    816.78412  0.083020007 
    5500    694221.91    100.61713   -725.56161    98.676075    83.796041    83.958167    725.56161  0.083496269 
    5520    694763.69    100.17231   -895.31205    98.719449    83.798239     83.98457    895.31205  0.083972531 
    5540     694602.8    99.931276   -879.88635    98.762823     83.79437     83.93212    879.88635  0.084448793 
    5560     694886.8    100.04913   -688.08564    98.806197    83.773423    83.950565    688.08564  0.084925055 
    5580    695443.82    100.08927   -871.30366    98.849571    83.789657    83.964722    871.30366  0.085401317 
    5600    695696.64    100.42026   -1190.5998    98.892945    83.804853    83.943181    1190.5998   0.08587758 
    5620    695280.49    99.897219   -694.56064    98.936319    83.776146    83.884924    694.56064  0.086353842 
    5640    696085.28    100.11076    -1009.819    98.979693    83.808707    83.912605     1009.819  0.086830104 
    5660    696568.88    99.487316   -1200.5727    99.023067    83.797337    83.945511    1200.5727  0.087306366 
    5680    696145.36     100.0695    -810.4319    99.066442    83.731505     83.92367     810.4319  0.087782628 
    5700    696273.33    100.01498   -1073.8954    99.109816    83.707122    83.926804    1073.8954   0.08825889 
    5720    696425.77     100.0245    -947.5727     99.15319    83.709341    83.906232     947.5727  0.088735152 
    5740    696168.12     100.1588   -1063.5557    99.196564    83.653146    83.894835    1063.5557  0.089211414 
    5760    696449.05    100.25995   -987.51117    99.239938    83.656792    83.888352    987.51117  0.089687676 
    5780    696672.24    100.61858   -1143.1578    99.283312     83.65818    83.877182    1143.1578  0.090163938 
    5800    696207.05    100.42238   -951.01111    99.326686    83.626346    83.816467    951.01111    0.0906402 
    5820    696179.92     100.0609   -668.58288     99.37006    83.571963    83.831133    668.58288  0.091116463 
    5840    696881.35    100.13722   -1027.3891    99.413434    83.603685    83.847158    1027.3891  0.091592725 
    5860    697381.86    100.03877   -834.41233    99.456808    83.620726    83.853693    834.41233  0.092068987 
    5880    697266.06    100.14665   -867.67546    99.500183    83.594514    83.829499    867.67546  0.092545249 
    5900    697622.42    99.666759   -768.28096    99.543557     83.58987    83.840454    768.28096  0.093021511 
    5920    698348.96    100.16861   -888.04648    99.586931    83.596906    83.884156    888.04648  0.093497773 
    5940    698868.28    99.886044   -831.48715    99.630305    83.575781    83.931199    831.48715  0.093974035 
    5960    698951.12     99.81333   -588.19691    99.673679    83.569885     83.91054    588.19691  0.094450297 
    5980    699674.04    99.195911   -1150.9349    99.717053    83.619562    83.910911    1150.9349  0.094926559 
    6000    699515.22    99.883382   -858.31401    99.760427    83.575278    83.899821    858.31401  0.095402821 
    6020    699482.02    99.946461   -931.79971    99.803801    83.539383    83.895412    931.79971  0.095879084 
    6040    699933.33     99.99757    -989.0669    99.847175    83.547684    83.904737     989.0669  0.096355346 
    6060    699951.14     100.0472   -975.85853    99.890549     83.53678    83.881385    975.85853  0.096831608 
    6080    699376.26    100.11159   -945.52996    99.933924    83.513688    83.799279    945.52996   0.09730787 
    6100    699490.05    100.01207   -826.45972    99.977298    83.517408     83.77282    826.45972  0.097784132 
    6120    699958.86     99.66602   -1008.8629    100.02067    83.542115    83.767834    1008.8629  0.098260394 
    6140    699503.69    100.37175   -556.24446    100.06405    83.471032    83.748333    556.24446  0.098736656 
    6160    699528.93    100.31776   -721.46534    100.10742    83.478402    83.707676    721.46534  0.099212918 
    6180     699893.6    100.05346   -904.83487    100.15079    83.501945    83.691439    904.83487   0.09968918 
    6200       699951    100.31197   -788.16562    100.19417    83.524215    83.639762    788.16562   0.10016544 
    6220    699711.83     100.2991    -873.2635    100.23754    83.469496    83.629792     873.2635    0.1006417 
    6240    700233.72    100.57301   -818.06867    100.28092    83.485046    83.640388    818.06867   0.10111797 
    6260    700944.82    100.12824   -1021.3181    100.32429    83.506455    83.667672    1021.3181   0.10159423 
    6280    700950.72    99.862229   -850.48473    100.36766    83.492185    83.646513    850.48473   0.10207049 
    6300     701662.9    100.06882   -1074.6793    100.41104    83.520577    83.666879    1074.6793   0.10254675 
    6320    701858.16     99.82049   -930.35545    100.45441    83.548892    83.625676    930.35545   0.10302301 
    6340    701622.65    99.920123   -732.23709    100.49779    83.493474    83.616998    732.23709   0.10349928 
    6360    701847.43    99.929217    -995.4989    100.54116    83.441876    83.659402     995.4989   0.10397554 
    6380    702055.07    99.949025    -633.5497    100.58454    83.426249    83.663735     633.5497    0.1044518 
    6400    701967.03    100.11629   -932.58633    100.62791    83.423055    83.620388    932.58633   0.10492806 
    6420    702066.19    99.777677   -773.81041    100.67128    83.384312    83.635009    773.81041   0.10540433 
    6440    702299.46    100.22661   -1088.3555    100.71466    83.350585    83.660605    1088.3555   0.10588059 
    6460    701992.33      100.048   -931.34832    100.75803    83.324284    83.614404    931.34832   0.10635685 
    6480    702370.89    99.941361   -871.97932    100.80141     83.33337    83.614379    871.97932   0.10683311 
    6500    702867.42    99.566652   -1152.2673    100.84478    83.337054    83.633803    1152.2673   0.10730937 
    6520     702671.7    99.554236   -1044.8602    100.88815     83.32949    83.582155    1044.8602   0.10778564 
    6540    702888.38    100.06101   -980.21613    100.93153    83.320789    83.580727    980.21613    0.1082619 
    6560    703376.79    99.864819    -1152.768     100.9749    83.308161    83.615549     1152.768   0.10873816 
    6580    704043.16    99.859148   -1069.4627    101.01828    83.354763    83.612058    1069.4627   0.10921442 
    6600    703622.47       99.843   -836.71399    101.06165    83.352595    83.528406    836.71399   0.10969068 
    6620    703761.61    99.964028   -733.27468    101.10502    83.346992    83.514696    733.27468   0.11016695 
    6640    704023.33     99.98402    -869.1532     101.1484    83.339814     83.51712     869.1532   0.11064321 
    6660    704491.44    100.12957   -801.69867    101.19177     83.34643    83.530198    801.69867   0.11111947 
    6680    704636.26    100.06206   -751.21438    101.23515    83.310468    83.547623    751.21438   0.11159573 
    6700    705255.32    100.16523    -830.2739    101.27852    83.310147    83.585534     830.2739   0.11207199 
    6720    705695.95    99.859067   -997.03631    101.32189    83.310474    83.601625    997.03631   0.11254826 
    6740    705438.51    99.997192   -989.18385    101.36527     83.27789    83.568051    989.18385   0.11302452 
    6760    705742.52    100.30514   -902.10636    101.40864    83.276863    83.569337    902.10636   0.11350078 
    6780    706205.85    100.55303    -980.1606    101.45202    83.303147    83.562075     980.1606   0.11397704 
    6800    705855.09    100.30334   -1009.8535    101.49539    83.263814    83.524317    1009.8535   0.11445331 
    6820    706246.53    99.936685   -1031.8508    101.53877    83.266639    83.532103    1031.8508   0.11492957 
    6840    706341.71    100.35536   -799.47952    101.58214    83.267699    83.506626    799.47952   0.11540583 
    6860    706548.04    100.32299   -891.64544    101.62551    83.240989    83.522159    891.64544   0.11588209 
    6880    706798.24     100.2566   -1053.6549    101.66889    83.197728    83.559517    1053.6549   0.11635835 
    6900    706947.02     100.0448     -801.584    101.71226    83.204681    83.534484      801.584   0.11683462 
    6920    706851.73    100.42721   -698.39043    101.75564    83.210012    83.482274    698.39043   0.11731088 
    6940    707434.23    100.26659   -735.70332    101.79901    83.233642     83.49176    735.70332   0.11778714 
    6960    707988.05    99.847144   -870.50226    101.84238    83.247792     83.50734    870.50226    0.1182634 
    6980    707669.78    100.31562   -815.21781    101.88576    83.190812    83.491412    815.21781   0.11873966 
    7000    707890.26    99.819848     -618.551    101.92913    83.162786    83.510019      618.551   0.11921593 
    7020    708551.38    99.461327   -928.17553    101.97251    83.238603    83.476354    928.17553   0.11969219 
    7040    708470.72    99.960962   -955.47403    102.01588    83.242779    83.427178    955.47403   0.12016845 
    7060    708356.24    100.17755   -828.67109    102.05925    83.212901    83.408184    828.67109   0.12064471 
    7080    708574.19    100.04852   -899.34025    102.10263    83.175767    83.435638    899.34025   0.12112097 
    7100    708692.44    99.924782   -1018.7951      102.146    83.143872    83.446125    1018.7951   0.12159724 
    7120    708515.76    100.18318   -862.52291    102.18938      83.1137    83.420186    862.52291    0.1220735 
    7140    709165.68    100.35268   -716.43706    102.23275    83.129713    83.445205    716.43706   0.12254976 
    7160    709570.92    100.17591   -950.90828    102.27612    83.125167    83.462043    950.90828   0.12302602 
    7180    709685.76    99.859051   -1008.8177     102.3195    83.097898    83.467547    1008.8177   0.12350229 
    7200    710063.41    100.21805   -746.30758    102.36287    83.109067    83.465358    746.30758   0.12397855 
    7220    710322.91     100.2607   -913.31729    102.40625    83.098784    83.470825    913.31729   0.12445481 
    7240    710611.78    99.875807   -825.24331    102.44962    83.121027     83.44708    825.24331   0.12493107 
    7260     710634.4    99.960421    -709.2233      102.493    83.087709     83.44787     709.2233   0.12540733 
    7280    710938.28    100.16008   -774.44302    102.53637    83.071486    83.464535    774.44302    0.1258836 
    7300     710920.2    99.798242   -860.07398    102.57974    83.011909    83.486997    860.07398   0.12635986 
    7320    710663.93    99.795745    -811.3247    102.62312    82.967671    83.466109     811.3247   0.12683612 
    7340    710910.62     99.95494   -684.89671    102.66649    82.960276    83.467248    684.89671   0.12731238 
    7360    711165.19     99.45325    -1273.922    102.70987    82.962453    83.459686     1273.922   0.12778864 
    7380     710992.5    99.869752   -1015.1144    102.75324     82.92473    83.442139    1015.1144   0.12826491 
    7400    711064.75    99.364225   -796.51185    102.79661    82.935354    83.404722    796.51185   0.12874117 
    7420    711193.83    99.586586   -975.82039    102.83999    82.936583    83.383443    975.82039   0.12921743 
    7440    711265.87    99.945701   -648.73754    102.88336    82.935174    83.358148    648.73754   0.12969369 
    7460    711240.76    99.862302   -722.17394    102.92674    82.900895    83.354532    722.17394   0.13016995 
    7480    711595.07    99.463037   -867.04445    102.97011    82.907768    83.354016    867.04445   0.13064622 
    7500    712131.54    99.200683   -1120.6417    103.01348      82.9576    83.331646    1120.6417   0.13112248 
    7520    712257.44    99.835749   -757.93726    103.05686    82.972671    83.296168    757.93726   0.13159874 
    7540     712550.7    99.497392   -807.23766    103.10023    82.938002    83.330226    807.23766     0.132075 
    7560    712630.36    99.372986   -987.74801    103.14361    82.911998    83.330622    987.74801   0.13255126 
    7580    712778.06    99.408198     -743.223    103.18698    82.912863     83.31199      743.223   0.13302753 
    7600    713124.29    99.156775   -1042.4081    103.23036    82.916946    83.313333    1042.4081   0.13350379 
    7620    713428.96    99.738529   -832.84348    103.27373    82.904896    83.326031    832.84348   0.13398005 
    7640    713376.29    99.875237   -858.97318     103.3171    82.878796    83.311128    858.97318   0.13445631 
    7660    713854.54    99.911891   -1036.3883    103.36048    82.889526     83.32121    1036.3883   0.13493258 
    7680    713894.07    99.888264   -709.55558    103.40385    82.869122    83.311378    709.55558   0.13540884 
    7700    714200.79    99.651999   -849.89545    103.44723    82.875331    83.305985    849.89545    0.1358851 
    7720    714693.67    99.610375   -917.89769     103.4906    82.887554    83.316249    917.89769   0.13636136 
    7740    714849.09    100.34486   -672.11248    103.53397    82.877318    83.309744    672.11248   0.13683762 
    7760    714914.39     100.5486    -563.9991    103.57735    82.855111    83.304784     563.9991   0.13731389 
    7780    715485.85    100.20186    -917.0972    103.62072    82.844047    83.347605     917.0972   0.13779015 
    7800    715509.89    100.14084   -968.39502     103.6641    82.847596    83.311963    968.39502   0.13826641 
    7820    715733.37    100.10664    -603.0653    103.70747    82.818442    83.332454     603.0653   0.13874267 
    7840    716189.39     99.99394   -850.29949    103.75084    82.827557    83.341516    850.29949   0.13921893 
    7860    716443.72    100.39422   -999.10801    103.79422    82.838569    83.325193    999.10801    0.1396952 
    7880    716470.77    100.38882   -874.22342    103.83759    82.833807     83.29832    874.22342   0.14017146 
    7900    716678.43    99.567316   -841.39506    103.88097    82.802931    83.318731    841.39506   0.14064772 
    7920     717157.2    100.33327    -964.9485    103.92434    82.800042    83.342501     964.9485   0.14112398 
    7940    717054.38    100.38232   -772.28241    103.96771    82.810338    83.285432    772.28241   0.14160024 
    7960    717428.76    100.46309   -693.07028    104.01109    82.832123    83.272259    693.07028   0.14207651 
    7980    717626.33    100.14939   -850.82839    104.05446    82.797239    83.295549    850.82839   0.14255277 
    8000    718131.62     99.90161   -722.51881    104.09784    82.775258    83.341594    722.51881   0.14302903 
    8020    718194.45    99.717417    -820.1179    104.14121    82.784133    83.305239     820.1179   0.14350529 
    8040    718495.94    99.992278   -685.08753    104.18459    82.785074    83.304567    685.08753   0.14398156 
    8060    718846.86    100.11643   -738.25719    104.22796    82.836012    83.259339    738.25719   0.14445782 
    8080    718926.96    99.521563    -836.9331    104.27133    82.846062    83.223883     836.9331   0.14493408 
    8100    719146.45    99.895528    -779.8365    104.31471    82.854683    83.206017     779.8365   0.14541034 
    8120     719728.6    100.24964   -939.88914    104.35808    82.876713    83.216636    939.88914    0.1458866 
    8140    720021.49    100.19356   -680.41974    104.40146    82.867658    83.225007    680.41974   0.14636287 
    8160    720021.58    100.45411    -732.4367    104.44483     82.85122    83.206961     732.4367   0.14683913 
    8180    720417.17    99.944694   -904.10199     104.4882    82.868962      83.2003    904.10199   0.14731539 
    8200    720695.08    100.13277   -661.41209    104.53158    82.864005    83.202836    661.41209   0.14779165 
    8220    720758.79    99.978471   -811.02581    104.57495    82.825825     83.21402    811.02581   0.14826791 
    8240    721444.92    100.18751   -781.41386    104.61833    82.842907    83.241535    781.41386   0.14874418 
    8260    721742.66     100.2232   -791.88822     104.6617    82.850217    83.234033    791.88822   0.14922044 
    8280     721340.1     100.4723   -653.89909    104.70507    82.822333    83.181143    653.89909    0.1496967 
    8300    721380.41    99.863085   -892.64241    104.74845    82.789188    83.184636    892.64241   0.15017296 
    8320    721941.03    99.806809   -1214.6332    104.79182    82.793478    83.210514    1214.6332   0.15064922 
    8340    722066.35    99.876838   -796.89494     104.8352     82.74564     83.23862    796.89494   0.15112549 
    8360    721934.36    99.729624   -922.37978    104.87857    82.706078    83.228779    922.37978   0.15160175 
    8380    722364.24    99.741201   -724.00908    104.92194    82.727725     83.22213    724.00908   0.15207801 
    8400    722285.05     100.2313   -791.06514    104.96532    82.719637    83.186754    791.06514   0.15255427 
    8420    722781.28    100.13162    -813.9853    105.00869     82.72391    83.205224     813.9853   0.15303054 
    8440     723500.8    99.754138   -754.11957    105.05207    82.747377    83.230054    754.11957    0.1535068 
    8460    723805.95    99.922608   -804.79143    105.09544    82.755292    83.222833    804.79143   0.15398306 
    8480    723803.49    100.13861   -647.83338    105.13882    82.735772    83.207844    647.83338   0.15445932 
    8500    724040.31     100.2691   -670.61347    105.18219    82.748656    83.187791    670.61347   0.15493558 
    8520    724506.84    99.929674   -409.35148    105.22556    82.763211    83.192447    409.35148   0.15541185 
    8540    725055.84    100.05011   -767.12553    105.26894    82.766522    83.217854    767.12553   0.15588811 
    8560    724993.88    100.21703   -888.11865    105.31231    82.724059    83.219165    888.11865   0.15636437 
    8580    724713.49    100.16357   -617.07231    105.35569    82.717229    83.159599    617.07231   0.15684063 
    8600    725024.98    100.08453   -944.55655    105.39906    82.724108     83.15419    944.55655   0.15731689 
    8620    725394.56    100.07036   -1112.0265    105.44243    82.734794    83.151614    1112.0265   0.15779316 
    8640    725572.09    100.01326   -896.25032    105.48581    82.725039    83.147568    896.25032   0.15826942 
    8660    725743.02    100.21258   -788.43925    105.52918    82.709225    83.148869    788.43925   0.15874568 
    8680    726176.63    99.909058   -886.26911    105.57256    82.719357    83.154179    886.26911   0.15922194 
    8700    726478.63     100.0982   -769.35051    105.61593    82.741192    83.132653    769.35051    0.1596982 
    8720     726956.7    99.974693   -556.82871     105.6593    82.759823    83.134491    556.82871   0.16017447 
    8740    727109.47    100.31821   -798.16067    105.70268    82.734974    83.142805    798.16067   0.16065073 
    8760    727249.08    100.24356   -702.35036    105.74605    82.741543     83.11806    702.35036   0.16112699 
    8780    727398.05    100.49832   -580.22773    105.78943    82.737016    83.105547    580.22773   0.16160325 
    8800    727447.67    100.30648   -601.23125     105.8328    82.730212    83.083987    601.23125   0.16207951 
    8820    727517.16    99.910298   -635.51892    105.87618    82.691812    83.096454    635.51892   0.16255578 
    8840    727856.76     99.33698   -814.80112    105.91955    82.642535     83.15075    814.80112   0.16303204 
    8860     728116.1    99.684582   -721.61256    105.96292    82.627485    83.161472    721.61256    0.1635083 
    8880    727971.02    99.896614    -670.3855     106.0063     82.60587    83.132629     670.3855   0.16398456 
    8900    728571.86    100.14177   -855.00435    106.04967    82.627295     83.14565    855.00435   0.16446083 
    8920    728803.71    99.863454   -1091.2245    106.09305    82.605871    83.159667    1091.2245   0.16493709 
    8940    728668.56    99.815164   -759.29947    106.13642    82.606931    83.109201    759.29947   0.16541335 
    8960    728865.13    100.12009   -660.70687    106.17979    82.586684    83.118034    660.70687   0.16588961 
    8980    729247.11    99.944494   -739.53975    106.22317    82.596433    83.117826    739.53975   0.16636587 
    9000    729180.71    99.655439   -640.38203    106.26654     82.59019    83.082615    640.38203   0.16684214 
    9020    729112.98    100.30741   -434.67253    106.30992    82.611118    83.019966    434.67253    0.1673184 
    9040    729211.29    100.33511   -662.24638    106.35329    82.594402    83.014095    662.24638   0.16779466 
    9060    729421.41    99.551799   -756.01283    106.39666    82.594364    83.004201    756.01283   0.16827092 
    9080    729514.02    100.01279   -687.63355    106.44004    82.557967    83.017496    687.63355   0.16874718 
    9100    730106.71    100.34448   -783.32839    106.48341    82.552985    83.056112    783.32839   0.16922345 
    9120    730281.41    100.55099   -952.96619    106.52679     82.56775     83.02731    952.96619   0.16969971 
    9140    730157.58    100.08556   -964.44406    106.57016    82.546905    83.000401    964.44406   0.17017597 
    9160    730225.73    100.19692    -708.3052    106.61353    82.544416    82.976878     708.3052   0.17065223 
    9180    730997.61    99.973965   -820.78149    106.65691    82.574134    83.000926    820.78149   0.17112849 
    9200     731347.3     100.2593   -976.50818    106.70028     82.60446    82.976402    976.50818   0.17160476 
    9220    731482.84    99.781681   -642.16007    106.74366     82.57825    82.984387    642.16007   0.17208102 
    9240    732111.59    100.41189   -838.33678    106.78703    82.581002    83.019215    838.33678   0.17255728 
    9260    732360.72    100.37426   -720.63733    106.83041    82.582768    83.011972    720.63733   0.17303354 
    9280    732723.14    100.09744   -365.87294    106.87378    82.599197    83.002833    365.87294   0.17350981 
    9300    733492.76    100.29607   -484.94871    106.91715    82.606791    83.048672    484.94871   0.17398607 
    9320    734079.34    100.25157   -663.57195    106.96053    82.624008    83.064071    663.57195   0.17446233 
    9340    734175.74    100.45867   -421.96175     107.0039    82.633728    83.031536    421.96175   0.17493859 
    9360    734784.54    100.22422   -694.37275    107.04728    82.654388    83.045953    694.37275   0.17541485 
    9380    734979.01    100.03486   -949.50698    107.09065    82.628223    83.060583    949.50698   0.17589112 
    9400    734898.52    100.11714    -659.2808    107.13402    82.570342    83.076057     659.2808   0.17636738 
    9420    735135.85    99.830899   -764.98946     107.1774    82.572345    83.067239    764.98946   0.17684364 
    9440    735060.28    99.974526   -924.30457    107.22077    82.582076    83.015316    924.30457    0.1773199 
    9460    734404.76    100.37311    -726.5224    107.26415    82.532545    82.957502     726.5224   0.17779616 
    9480    734587.05    99.664211   -643.86113    107.30752    82.530935    82.946171    643.86113   0.17827243 
    9500    735212.35    100.15611   -650.28538    107.35089    82.537096     82.97704    650.28538   0.17874869 
    9520    734920.83    99.708674   -677.71522    107.39427    82.526209    82.921578    677.71522   0.17922495 
    9540    735013.76    100.27616   -522.37886    107.43764    82.529896    82.894879    522.37886   0.17970121 
    9560    735271.03    100.01753   -566.09261    107.48102    82.512047     82.90836    566.09261   0.18017747 
    9580     735456.1     99.99157   -621.55142    107.52439    82.493085    82.914831    621.55142   0.18065374 
    9600    735509.17    99.718437   -469.33825    107.56776    82.506931    82.873468    469.33825      0.18113 
    9620    735469.56    100.34161   -548.27901    107.61114     82.48123    82.861415    548.27901   0.18160626 
    9640    735842.59    100.24214   -720.80747    107.65451    82.481485    82.869783    720.80747   0.18208252 
    9660    736686.14    99.726484   -717.35397    107.69789    82.512735    82.899962    717.35397   0.18255879 
    9680    736992.67    99.877869   -798.42502    107.74126     82.51566     82.89813    798.42502   0.18303505 
    9700    737292.38    99.864253   -891.15682    107.78464    82.523977    82.890114    891.15682   0.18351131 
    9720    737497.28    99.922373   -875.58653    107.82801    82.519362    82.884434    875.58653   0.18398757 
    9740    738113.04    99.695611   -695.22053    107.87138    82.547095    82.892423    695.22053   0.18446383 
    9760    738432.68    100.38259    -748.6727    107.91476    82.541291    82.900817     748.6727    0.1849401 
    9780    738621.62    100.41836   -761.94286    107.95813    82.524397    82.905682    761.94286   0.18541636 
    9800    738478.51    100.05302   -467.91627    108.00151    82.509436    82.871353    467.91627   0.18589262 
    9820    738723.85    100.27767   -403.43727    108.04488    82.506778    82.868275    403.43727   0.18636888 
    9840    739629.25    100.72213   -638.05782    108.08825     82.50915    82.934163    638.05782   0.18684514 
    9860    739951.23    100.29747   -612.26475    108.13163     82.49097    82.955262    612.26475   0.18732141 
    9880    739547.82    100.19429   -538.76691      108.175    82.442305    82.925715    538.76691   0.18779767 
    9900    739563.77    100.07938   -655.85079    108.21838    82.417841     82.91887    655.85079   0.18827393 
    9920     740100.7    100.18794   -802.24344    108.26175    82.411263    82.952446    802.24344   0.18875019 
    9940    740370.25    100.10587   -706.88153    108.30512      82.3965    82.964288    706.88153   0.18922645 
    9960    740370.58    99.883584   -751.10505     108.3485    82.388928    82.938734    751.10505   0.18970272 
    9980    741272.65    100.44389   -949.43039    108.39187    82.429715    82.965485    949.43039   0.19017898 
   10000    741391.33    99.773611   -732.85298    108.43525    82.423309    82.952024    732.85298   0.19065524 
   10020    741238.19    100.08705   -709.65215    108.47862    82.409281     82.91584    709.65215    0.1911315 
   10040     741724.7    100.22662    -600.4892      108.522    82.447655    82.898498     600.4892   0.19160776 
   10060     742049.5    100.19325   -468.67502    108.56537    82.436606    82.912777    468.67502   0.19208403 
   10080    741850.51     100.2762   -484.76061    108.60874    82.417498     82.87665    484.76061   0.19256029 
   10100    742296.04    100.18309   -406.54536    108.65212    82.449967    82.860674    406.54536   0.19303655 
   10120    743071.72    100.06528   -575.68955    108.69549    82.515049    82.848765    575.68955   0.19351281 
   10140    743085.24    99.963749   -462.29757    108.73887    82.517647    82.814618    462.29757   0.19398908 
   10160    743384.86    99.918173   -643.82007    108.78224    82.526553    82.806039    643.82007   0.19446534 
   10180    743967.03    100.09486   -629.82361    108.82561    82.565493    82.798789    629.82361    0.1949416 
   10200    744250.22    99.888215   -788.04489    108.86899    82.580719     82.78204    788.04489   0.19541786 
   10220    744474.89    99.849687   -931.70641    108.91236    82.586571    82.768188    931.70641   0.19589412 
   10240    744686.66    100.02627   -634.10269    108.95574    82.572537    82.772838    634.10269   0.19637039 
   10260    745298.37    99.814295   -651.49112    108.99911    82.561089    82.819347    651.49112   0.19684665 
   10280    745691.95    100.35138   -681.22308    109.04248    82.560267    82.830948    681.22308   0.19732291 
   10300    746156.62    100.21125   -591.79635    109.08586    82.581209    82.828597    591.79635   0.19779917 
   10320    746316.01    99.922453   -256.93957    109.12923    82.562428    82.832201    256.93957   0.19827543 
   10340     747318.5    99.787175   -468.04068    109.17261    82.620141    82.852596    468.04068    0.1987517 
   10360    747581.28    100.23858   -574.76637    109.21598    82.603755    82.865248    574.76637   0.19922796 
   10380    747642.25    100.13515   -321.56282    109.25935    82.599178    82.843699    321.56282   0.19970422 
   10400    747967.47    100.03756   -579.08829    109.30273    82.598999    82.847026    579.08829   0.20018048 
   10420    748014.12     100.3317   -513.23201     109.3461    82.593928    82.824413    513.23201   0.20065674 
   10440    748107.38    100.03318    -635.5039    109.38948    82.577529    82.818338     635.5039   0.20113301 
   10460     748170.4     100.4461   -441.35609    109.43285    82.542535    82.827586    441.35609   0.20160927 
   10480    748086.08    100.01282   -584.55126    109.47623     82.50608    82.822018    584.55126   0.20208553 
   10500    748544.89    99.559034     -670.992     109.5196    82.529303    82.816682      670.992   0.20256179 
   10520    749124.83    100.19669   -592.04634    109.56297    82.551241    82.826017    592.04634   0.20303806 
   10540    749527.17    99.546853   -763.09537    109.60635    82.570871    82.818014    763.09537   0.20351432 
   10560    749459.25    99.981399   -431.60206    109.64972    82.532142    82.816596    431.60206   0.20399058 
   10580    749962.06    99.547228   -713.66197     109.6931    82.525395    82.846161    713.66197   0.20446684 
   10600    749888.17    99.985412   -450.13062    109.73647    82.494861    82.835906    450.13062    0.2049431 
   10620    749655.38    100.41528   -356.62506    109.77984    82.465155     82.80729    356.62506   0.20541937 
   10640    750127.59    100.30487   -476.29401    109.82322    82.444956    82.847019    476.29401   0.20589563 
   10660    750767.76    100.36783   -396.14365    109.86659    82.466211    82.863623    396.14365   0.20637189 
   10680    750856.98    99.880162   -369.71973    109.90997     82.47499    82.831948    369.71973   0.20684815 
   10700    751213.14    100.42239   -447.48846    109.95334    82.510974    82.802422    447.48846   0.20732441 
   10720     751921.5    100.47973   -739.21923    109.99671    82.550301    82.808349    739.21923   0.20780068 
   10740    752326.52    99.558437   -666.65006    110.04009    82.604099    82.766357    666.65006   0.20827694 
   10760    752641.78    99.823116    -714.2531    110.08346    82.614113    82.758384     714.2531    0.2087532 
   10780    753133.71    100.31984   -893.05799    110.12684    82.609189    82.784793    893.05799   0.20922946 
   10800    753173.59    99.986522   -555.19992    110.17021    82.561885    82.803998    555.19992   0.20970572 
   10820    753448.52    100.11033   -647.49569    110.21358    82.565768     82.79773    647.49569   0.21018199 
   10840     754199.1    99.970168   -544.94536    110.25696    82.595561    82.817724    544.94536   0.21065825 
   10860    754501.58    100.22149   -545.54623    110.30033    82.594654    82.819268    545.54623   0.21113451 
   10880    754379.49      100.034   -516.06902    110.34371    82.561781    82.806275    516.06902   0.21161077 
   10900    754669.71    100.04192   -507.55938    110.38708    82.551679    82.815716    507.55938   0.21208704 
   10920    754843.95    100.13141   -502.47268    110.43046    82.546805     82.80719    502.47268    0.2125633 
   10940    754862.73    99.743013   -401.91966    110.47383    82.516602    82.807037    401.91966   0.21303956 
   10960    754863.26     100.0145   -429.94383     110.5172    82.520713    82.770471    429.94383   0.21351582 
   10980    754897.79     100.2787   -551.06232    110.56058    82.515508    82.747004    551.06232   0.21399208 
   11000    755194.48    100.25376   -581.81957    110.60395    82.512613    82.749965    581.81957   0.21446835 
   11020    755397.25    100.15916    -517.3492    110.64733      82.5195    82.732833     517.3492   0.21494461 
   11040    755976.98    100.20745   -698.26417     110.6907    82.554473     82.72882    698.26417   0.21542087 
   11060    755801.25    99.866609   -680.86944    110.73407    82.518635    82.713099    680.86944   0.21589713 
   11080    756191.73    99.855604    -456.8544    110.77745    82.530015    82.712023     456.8544   0.21637339 
   11100    756895.56    100.08996   -534.79384    110.82082    82.572955    82.713569    534.79384   0.21684966 
   11120    757330.06    99.779969   -338.90296     110.8642    82.584202    82.717406    338.90296   0.21732592 
   11140    757644.62    99.991861   -374.76035    110.90757    82.575283    82.728335    374.76035   0.21780218 
   11160    758061.71    100.15833   -359.99872    110.95094     82.60603     82.71072    359.99872   0.21827844 
   11180    758520.52     99.95717   -344.45923    110.99432    82.655187    82.679239    344.45923    0.2187547 
   11200    758507.38    100.25799     -452.112    111.03769    82.636302    82.664398      452.112   0.21923097 
   11220    758593.53    99.999044   -523.75638    111.08107     82.62269     82.65512    523.75638   0.21970723 
   11240    758969.42     100.2058    -572.9011    111.12444    82.648002    82.638481     572.9011   0.22018349 
   11260    759272.74    100.13433   -568.39159    111.16782    82.655503    82.631753    568.39159   0.22065975 
   11280    760320.07    100.07161   -777.30614    111.21119    82.680481    82.688474    777.30614   0.22113601 
   11300       760556    100.42427   -624.44101    111.25456    82.663689     82.69868    624.44101   0.22161228 
   11320    760496.73    100.15563   -465.05143    111.29794    82.639081    82.684625    465.05143   0.22208854 
   11340    760994.57    100.03948   -456.02952    111.34131     82.65746    82.688129    456.02952    0.2225648 
   11360    762053.89    99.862071   -504.05904    111.38469    82.725174    82.703237    504.05904   0.22304106 
   11380    762504.91     99.71827    -207.4005    111.42806    82.721176    82.723972     207.4005   0.22351733 
   11400    762924.51    99.725689   -168.26355    111.47143    82.739177    82.719287    168.26355   0.22399359 
   11420    763385.61    99.347752    -424.4907    111.51481    82.729847    82.746418     424.4907   0.22446985 
   11440    763443.79    99.532529   -348.87196    111.55818    82.721247    82.729151    348.87196   0.22494611 
   11460    763525.59    99.847641   -541.97008    111.60156    82.712705    82.714399    541.97008   0.22542237 
   11480    763696.69    99.934734   -690.98496    111.64493    82.704911    82.708587    690.98496   0.22589864 
   11500    763719.71    99.489528   -649.35976     111.6883    82.696961    82.686909    649.35976    0.2263749 
   11520    763896.47    100.07924   -642.88266    111.73168    82.697359    82.673541    642.88266   0.22685116 
   11540     763278.8    100.24148    -672.2208    111.77505    82.667601    82.604362     672.2208   0.22732742 
   11560    763700.37    100.05274   -550.31027    111.81843    82.668563    82.616965    550.31027   0.22780368 
   11580    764399.79    100.03635   -468.77248     111.8618     82.69829     82.63085    468.77248   0.22827995 
   11600    765179.92    100.24627    -545.5781    111.90517    82.712386    82.669031     545.5781   0.22875621 
   11620    765238.67    100.25869    -376.3539    111.94855    82.683718       82.672     376.3539   0.22923247 
   11640    765432.64    100.07147   -382.91533    111.99192    82.691495    82.653154    382.91533   0.22970873 
   11660    765813.96    100.56281    -332.3625     112.0353    82.736262    82.617588     332.3625   0.23018499 
   11680    765964.34    100.55626   -265.46502    112.07867    82.719591     82.61848    265.46502   0.23066126 
   11700    766702.04    100.49559    -318.0125    112.12205    82.725557    82.660096     318.0125   0.23113752 
   11720    767224.72    100.10969   -423.81805    112.16542    82.755859    82.654186    423.81805   0.23161378 
   11740    767353.21    100.39939   -633.26417    112.20879    82.728146    82.663755    633.26417   0.23209004 
   11760    767434.44    100.50667   -491.69435    112.25217    82.707895    82.660795    491.69435   0.23256631 
   11780    767650.74    100.14756   -681.46757    112.29554    82.699038    82.661009    681.46757   0.23304257 
   11800    768012.65    99.958746   -729.28961    112.33892    82.697493    82.669593    729.28961   0.23351883 
   11820     767889.3    99.814422   -364.87114    112.38229     82.62637    82.695536    364.87114   0.23399509 
   11840    768172.59    100.30361   -400.07764    112.42566    82.618856    82.701649    400.07764   0.23447135 
   11860    768338.13    100.25093   -452.62715    112.46904    82.621292    82.685131    452.62715   0.23494762 
   11880    768468.71    100.01822   -198.02749    112.51241    82.624366    82.664228    198.02749   0.23542388 
   11900    768672.01    99.863462   -90.889158    112.55579     82.62953    82.649068    90.889158   0.23590014 
   11920    769285.03    100.25392   -283.41827    112.59916    82.632001    82.680645    283.41827    0.2363764 
   11940       769376    100.23079   -390.49165    112.64253    82.636653    82.653928    390.49165   0.23685266 
   11960    769657.36    99.805915   -180.74553    112.68591     82.63349    82.655493    180.74553   0.23732893 
   11980    770351.24    99.968971   -577.63388    112.72928    82.654221    82.677438    577.63388   0.23780519 
   12000    770756.85    99.990106   -428.87467    112.77266     82.62447    82.718927    428.87467   0.23828145 
   12020    771076.22    99.985136   -629.02892    112.81603    82.603774    82.742112    629.02892   0.23875771 
   12040    771497.44    100.04817   -544.75705     112.8594    82.593343    82.765947    544.75705   0.23923397 
   12060     771881.6    100.18869   -483.58129    112.90278    82.599228    82.769449    483.58129   0.23971024 
   12080    772691.11    100.39832   -503.98042    112.94615    82.588234     82.83546    503.98042    0.2401865 
   12100    773228.26    99.921473   -461.85529    112.98953    82.586103    82.863363    461.85529   0.24066276 
   12120    773422.19    99.872078    -488.0951     113.0329    82.576565     82.86191     488.0951   0.24113902 
   12140    773894.33    100.65723   -27.758344    113.07628    82.564767    82.892533    27.758344   0.24161528 
   12160     774743.1     100.2406   -235.65721    113.11965    82.613285    82.902911    235.65721   0.24209155 
   12180    775157.64    99.654498    -278.1222    113.16302    82.623734     82.90499     278.1222   0.24256781 
   12200    775287.23    99.924475    -39.75096     113.2064    82.578008    82.932977     39.75096   0.24304407 
   12220     775699.2    99.946122   -349.89309    113.24977    82.555283    82.968099    349.89309   0.24352033 
   12240    775800.01    99.620813    -433.7236    113.29315    82.537074    82.965412     433.7236    0.2439966 
   12260    776217.58     99.34282   -640.75279    113.33652    82.568678    82.946539    640.75279   0.24447286 
   12280    776515.54    100.11804   -561.27931    113.37989    82.583759    82.931488    561.27931   0.24494912 
   12300    776336.81     100.3085   -602.24353    113.42327    82.567792    82.896721    602.24353   0.24542538 
   12320    776183.35    100.13591   -612.34081    113.46664    82.535259    82.881309    612.34081   0.24590164 
   12340    776192.05    99.972003   -381.69245    113.51002    82.536152     82.84967    381.69245   0.24637791 
   12360    776315.22    100.32037   -328.24935    113.55339    82.527977    82.839371    328.24935   0.24685417 
   12380    776717.87    100.49479   -260.17192    113.59676    82.551194     82.82739    260.17192   0.24733043 
   12400     777054.9    100.18028   -420.40185    113.64014    82.552603    82.830289    420.40185   0.24780669 
   12420    776995.24    99.785085    -146.2886    113.68351     82.54064    82.804328     146.2886   0.24828295 
   12440    777722.21    100.10757   -173.16126    113.72689    82.553729    82.837056    173.16126   0.24875922 
   12460    778259.18    100.63966   -472.83702    113.77026    82.555573    82.860796    472.83702   0.24923548 
   12480    778554.15    100.44261   -380.76313    113.81364    82.551746    82.864453    380.76313   0.24971174 
   12500    778750.86    100.49708   -424.22136    113.85701    82.548266    82.857306    424.22136     0.250188 
   12520     778876.3    100.07389   -346.38394    113.90038    82.523742    82.863713    346.38394   0.25066426 
   12540    779836.61    100.32302   -579.15989    113.94376     82.55225    82.905657    579.15989   0.25114053 
   12560    779984.44    100.00561   -474.23078    113.98713    82.549856    82.892224    474.23078   0.25161679 
   12580    780288.73    100.26912   -369.94261    114.03051    82.574582    82.868198    369.94261   0.25209305 
   12600    781061.42    100.77848   -582.44216    114.07388    82.593354    82.899874    582.44216   0.25256931 
   12620    781370.66    99.948456   -433.78381    114.11725    82.600037    82.894467    433.78381   0.25304558 
   12640    781532.51    100.18073   -167.41134    114.16063    82.605081    82.875075    167.41134   0.25352184 
   12660    782018.73    100.43143   -357.82149      114.204    82.629402    82.870742    357.82149    0.2539981 
   12680    782399.06    100.24774   -345.75588    114.24738    82.621175     82.88782    345.75588   0.25447436 
   12700    782058.87    100.36517   -52.551396    114.29075    82.590794    82.850803    52.551396   0.25495062 
   12720     782599.2    99.880219     -131.309    114.33412    82.604812    82.862529      131.309   0.25542689 
   12740    783278.43    100.03062   -461.83616     114.3775    82.627095    82.880638    461.83616   0.25590315 
   12760    783548.51    100.62198   -334.65474    114.42087    82.638272    82.866579    334.65474   0.25637941 
   12780    783660.48    100.39281   -336.80963    114.46425     82.63166    82.853644    336.80963   0.25685567 
   12800    784650.16    100.40351   -434.90879    114.50762    82.643948    82.914526    434.90879   0.25733193 
   12820    785299.27    100.20663   -522.14354    114.55099    82.658727    82.936865    522.14354    0.2578082 
   12840    785588.56    100.17863   -405.68027    114.59437    82.676181    82.918506    405.68027   0.25828446 
   12860    785746.49    99.945184   -349.80083    114.63774    82.669283    82.910713    349.80083   0.25876072 
   12880    785974.95    99.876794   -265.20593    114.68112    82.652289    82.920499    265.20593   0.25923698 
   12900    786572.05    99.753833   -359.37328    114.72449    82.675982    82.928347    359.37328   0.25971324 
   12920    787071.26    99.948415   -437.15406    114.76787    82.679955    82.945632    437.15406   0.26018951 
   12940    786896.77    100.19534    19.882084    114.81124    82.626361    82.949683   -19.882084   0.26066577 
   12960    787107.98    100.26414   -164.90994    114.85461    82.614646    82.952375    164.90994   0.26114203 
   12980     787786.8    100.08259   -225.71762    114.89799    82.669394    82.937611    225.71762   0.26161829 
   13000     787959.5    100.42238   -81.968231    114.94136    82.683574    82.910268    81.968231   0.26209456 
   13020    788022.73    100.05702   -265.07968    114.98474    82.665795     82.90347    265.07968   0.26257082 
[...]
   36740    1177567.1    100.08163    18.439331    166.42642    83.953763    84.279752   -18.439331   0.82741766 
   36760    1177537.9    100.18814    3.1860755    166.46979    83.952414    84.257054   -3.1860755   0.82789393 
   36780    1178315.5    100.32689    53.485658    166.51317    84.000302    84.242675   -53.485658   0.82837019 
   36800    1178594.6    100.07169   -9.2874463    166.55654    84.015407     84.22554    9.2874463   0.82884645 
   36820    1178795.4    99.895101   -62.267579    166.59991    83.985806    84.247644    62.267579   0.82932271 
   36840    1179217.4    100.28947   -134.53793    166.64329    83.947816    84.294001    134.53793   0.82979897 
   36860    1179770.4    99.846305   -168.97692    166.68666    83.944355    84.315061    168.97692   0.83027524 
   36880    1180801.5    100.25619   -268.02829    166.73004    83.985767    84.325199    268.02829    0.8307515 
   36900    1180832.2    100.20999   -256.59543    166.77341    84.007933    84.283215    256.59543   0.83122776 
   36920    1181250.9    99.763985   -248.74812    166.81678    84.041617     84.25739    248.74812   0.83170402 
   36940    1181976.9    100.27132   -179.15702    166.86016    84.053462    84.275384    179.15702   0.83218028 
   36960    1182183.1    100.44954   -175.45222    166.90353    84.056637    84.264994    175.45222   0.83265655 
   36980    1181989.8    100.17612   -56.395404    166.94691    84.058694    84.227267    56.395404   0.83313281 
   37000    1181625.7    100.15999    29.705755    166.99028     84.07601    84.162114   -29.705755   0.83360907 
   37020    1182049.6    100.20009   -150.26877    167.03365    84.082639     84.16381    150.26877   0.83408533 
   37040    1181726.8    99.713696    2.3469666    167.07703    84.028349    84.173333   -2.3469666   0.83456159 
   37060    1181905.3    99.545073    -130.9592     167.1204    83.999756    84.192841     130.9592   0.83503786 
   37080    1181955.6    99.380369    -170.1907    167.16378    83.966157    84.208265     170.1907   0.83551412 
   37100    1182106.6    99.985139   -189.63038    167.20715    83.949827    84.213553    189.63038   0.83599038 
   37120    1183070.7    99.387165   -245.41771    167.25052    83.955122    84.255064    245.41771   0.83646664 
   37140    1183825.4    100.03276   -322.25729     167.2939    83.967931    84.274097    322.25729   0.83694291 
   37160    1183953.4    99.857565   -253.74564    167.33727     83.91423    84.315281    253.74564   0.83741917 
   37180    1183856.7    99.741166   -36.346117    167.38065    83.906122    84.294693    36.346117   0.83789543 
   37200    1184945.1    100.28042   -192.09716    167.42402     83.95188    84.304359    192.09716   0.83837169 
   37220    1185017.2    99.931724   -89.250097     167.4674     83.97155    84.267906    89.250097   0.83884795 
   37240    1184751.6    100.06795   -174.55204    167.51077    83.929651    84.269254    174.55204   0.83932422 
   37260    1184592.4    100.34867    -66.63151    167.55414    83.915331    84.250495     66.63151   0.83980048 
   37280    1184459.2     100.0621   0.54328643    167.59752    83.899868    84.234741  -0.54328643   0.84027674 
   37300    1185327.3    99.848646   -173.96318    167.64089    83.916541    84.257924    173.96318     0.840753 
   37320      1185556    100.33139   -144.36888    167.68427      83.9207    84.248205    144.36888   0.84122926 
   37340    1185573.7     100.0779   -181.33609    167.72764    83.913071    84.235335    181.33609   0.84170553 
   37360    1185300.8    99.606419   -120.22142    167.77101    83.868524    84.238891    120.22142   0.84218179 
   37380    1185867.7    100.27022   -201.67171    167.81439    83.865408    84.260528    201.67171   0.84265805 
   37400    1186236.1    100.44275   -137.00033    167.85776    83.868502    84.261818    137.00033   0.84313431 
   37420    1186449.1    100.23725   -75.156913    167.90114    83.850872    84.272894    75.156913   0.84361057 
   37440    1186886.9     99.83361     -291.971    167.94451    83.854345    84.278727      291.971   0.84408684 
   37460    1186948.1    100.30441   -125.59231    167.98788    83.836276    84.279465    125.59231    0.8445631 
   37480    1187269.9    100.59733   -131.47085    168.03126    83.844289      84.2725    131.47085   0.84503936 
   37500    1187620.9     100.6308   -23.192841    168.07463    83.875918    84.243886    23.192841   0.84551562 
   37520    1187877.6    100.08939   -164.20045    168.11801    83.881778    84.234466    164.20045   0.84599189 
   37540    1188398.1    100.11701    -162.6582    168.16138    83.869427     84.26205     162.6582   0.84646815 
   37560    1189174.3    100.33309   -115.11401    168.20476    83.911731    84.252844    115.11401   0.84694441 
   37580    1189549.5    100.51666   -123.07364    168.24813    83.921258    84.248132    123.07364   0.84742067 
   37600    1189917.7    100.46983   -89.738512     168.2915    83.938524    84.235158    89.738512   0.84789693 
   37620    1190073.4    100.79675   -181.43065    168.33488     83.93922    84.223779    181.43065    0.8483732 
   37640    1189980.5     100.1986   -25.672938    168.37825    83.909152    84.225677    25.672938   0.84884946 
   37660    1190745.5    99.689152   -194.25123    168.42163    83.906064    84.261218    194.25123   0.84932572 
   37680    1191845.3    100.39201   -226.87205      168.465    83.924107    84.299207    226.87205   0.84980198 
   37700    1191724.6    100.02893   -67.269528    168.50837    83.922419    84.270663    67.269528   0.85027824 
   37720    1191685.4    99.957836   -165.81828    168.55175    83.890849    84.277914    165.81828   0.85075451 
   37740    1192404.8    99.816907    -223.2286    168.59512    83.889932    84.308017     223.2286   0.85123077 
   37760    1192289.4    99.668608   -213.43042     168.6385    83.862731    84.305513    213.43042   0.85170703 
   37780    1192374.3    99.900112   -50.488524    168.68187    83.867061    84.285485    50.488524   0.85218329 
   37800    1193092.4    99.589195   -173.59398    168.72524    83.895878    84.285601    173.59398   0.85265955 
   37820    1192308.1    100.14629   -76.539951    168.76862    83.877083    84.227413    76.539951   0.85313582 
   37840    1192069.5     100.2539   -24.915252    168.81199    83.851628    84.214484    24.915252   0.85361208 
   37860    1193250.9    100.04852   -105.96687    168.85537     83.89745    84.230261    105.96687   0.85408834 
   37880    1193951.1    99.562481   -152.62757    168.89874    83.918067    84.237342    152.62757    0.8545646 
   37900    1194139.1    99.854829   -117.92824    168.94211    83.929367    84.217634    117.92824   0.85504086 
   37920    1194417.1    99.736885   -117.35668    168.98549    83.936139    84.208826    117.35668   0.85551713 
   37940      1195039     100.0282   -289.38517    169.02886    83.959682    84.207431    289.38517   0.85599339 
   37960    1194559.9    99.976589   -90.145215    169.07224    83.930573    84.181267    90.145215   0.85646965 
   37980    1195346.5    100.08832   -150.77476    169.11561    83.961288    84.184281    150.77476   0.85694591 
   38000    1195870.6     100.0457   -106.23079    169.15899    83.956254    84.204647    106.23079   0.85742218 
   38020    1195372.1    100.28064   -24.339854    169.20236    83.920154    84.184171    24.339854   0.85789844 
   38040    1196127.6    100.15045   -92.289361    169.24573    83.936737    84.199152    92.289361    0.8583747 
   38060      1196558     100.6655   -35.663417    169.28911    83.955965    84.188576    35.663417   0.85885096 
   38080      1197287    100.43079   -79.746156    169.33248    83.931644    84.242694    79.746156   0.85932722 
   38100    1197433.8    100.36244   -67.908022    169.37586    83.952528    84.210495    67.908022   0.85980349 
   38120    1197561.9    100.86796   -160.44405    169.41923    83.960316    84.190137    160.44405   0.86027975 
   38140    1196925.9    100.79518   -106.72987     169.4626    83.943787    84.140452    106.72987   0.86075601 
   38160    1197499.3    100.35768   -168.18643    169.50598    83.945841    84.157161    168.18643   0.86123227 
   38180    1198124.1      100.577   -398.09613    169.54935    83.955217    84.170126    398.09613   0.86170853 
   38200    1198096.9    100.19886   -108.87921    169.59273    83.932804    84.169162    108.87921    0.8621848 
   38220      1198558    100.41847    -149.5747     169.6361     83.96283     84.14992     149.5747   0.86266106 
   38240    1198743.8    100.10321   -195.15974    169.67947     83.93626    84.168088    195.15974   0.86313732 
   38260    1199215.9    100.23395   -25.477811    169.72285    83.935392    84.180587    25.477811   0.86361358 
   38280      1199319    100.12052    93.375803    169.76622    83.900501    84.201314   -93.375803   0.86408984 
   38300    1200108.1    99.934581    15.378586     169.8096    83.918464    84.217162   -15.378586   0.86456611 
   38320      1200618    100.05546   -135.70925    169.85297    83.957352    84.192412    135.70925   0.86504237 
   38340    1200369.7    99.692179    8.8418503    169.89634     83.94049     84.17042   -8.8418503   0.86551863 
   38360    1201469.7    100.06198   -172.74306    169.93972    83.934095    84.232468    172.74306   0.86599489 
   38380    1202066.4     99.75893   -314.29232    169.98309    83.915137    84.271832    314.29232   0.86647116 
   38400      1201880    99.909421   -283.81822    170.02647    83.892768    84.259732    283.81822   0.86694742 
   38420    1202067.4    100.06498   -167.51257    170.06984    83.886089    84.258084    167.51257   0.86742368 
   38440    1202341.9    100.22853   -279.04495    170.11322    83.898558     84.24331    279.04495   0.86789994 
   38460    1203123.6    100.00624   -188.47156    170.15659    83.925434    84.249606    188.47156    0.8683762 
   38480    1202800.8    100.19269    86.915856    170.19996    83.914724    84.216285   -86.915856   0.86885247 
   38500    1203287.3    100.34166   -86.828666    170.24334    83.963794    84.179655    86.828666   0.86932873 
   38520      1203473    99.810116   -104.74758    170.28671    83.979111     84.15585    104.74758   0.86980499 
   38540    1204094.1    99.455063   -26.066246    170.33009    84.004538    84.152363    26.066246   0.87028125 
   38560      1204533    99.591877   -11.985932    170.37346    83.978305    84.187896    11.985932   0.87075751 
   38580    1204883.8    99.992406   -195.75867    170.41683    83.966696    84.202619    195.75867   0.87123378 
   38600    1204593.2    99.789882   -170.32391    170.46021    83.923096    84.204613    170.32391   0.87171004 
   38620    1205136.1    99.970042   -126.45976    170.50358     83.90394    84.240365    126.45976    0.8721863 
   38640    1206406.8    99.539389   -257.69672    170.54696    83.911832    84.299812    257.69672   0.87266256 
   38660    1206327.1    99.926079    -114.0875    170.59033    83.924588    84.260002     114.0875   0.87313882 
   38680    1206070.9    99.776912   -151.42512     170.6337    83.911453    84.233876    151.42512   0.87361509 
   38700    1206228.4    99.752405   -108.02909    170.67708    83.897769    84.237204    108.02909   0.87409135 
   38720    1206633.1     99.97676   -77.276285    170.72045    83.912256    84.229516    77.276285   0.87456761 
   38740    1207357.8      100.233    -41.82087    170.76383    83.971265    84.199481     41.82087   0.87504387 
   38760    1207386.7    99.935416    34.024935     170.8072    83.991624    84.159708   -34.024935   0.87552014 
   38780    1207044.6    100.26977   -98.139565    170.85058    83.983223    84.122916    98.139565    0.8759964 
   38800    1207026.9    100.47505   -1.2966212    170.89395    83.986144    84.097409    1.2966212   0.87647266 
   38820    1207287.3    100.44976   -161.32382    170.93732     83.95737    84.123027    161.32382   0.87694892 
   38840    1207990.1     100.6735   -144.46176     170.9807    83.962492    84.145517    144.46176   0.87742518 
   38860    1208961.4    100.46808   -338.28975    171.02407    83.994539    84.159696    338.28975   0.87790145 
   38880    1208526.2    100.32026   -301.82277    171.06745    83.958233    84.144437    301.82277   0.87837771 
   38900    1208202.1     100.5234   -147.32137    171.11082    83.902853    84.156056    147.32137   0.87885397 
   38920    1208994.1    100.56313   -179.45326    171.15419     83.91391    84.178792    179.45326   0.87933023 
   38940      1209516    99.997556    14.072751    171.19757    83.920469    84.187214   -14.072751   0.87980649 
   38960    1209068.2    100.03107    37.363567    171.24094    83.897535    84.157726   -37.363567   0.88028276 
   38980    1209045.3    100.15236    71.350362    171.28432    83.904513    84.127822   -71.350362   0.88075902 
   39000    1209432.7     100.1759   -16.075542    171.32769    83.943353     84.09455    16.075542   0.88123528 
   39020    1209252.2    99.722741   -45.020622    171.37106    83.949395    84.054667    45.020622   0.88171154 
   39040    1210062.6    100.11713   -108.41258    171.41444    83.966229    84.072851    108.41258    0.8821878 
   39060    1210988.2    99.931405   -209.83653    171.45781    83.977338    84.104748    209.83653   0.88266407 
   39080    1210472.7    100.00202   -132.33961    171.50119    83.944643    84.080422    132.33961   0.88314033 
   39100    1211151.5    100.38147   -282.94733    171.54456    83.967054     84.08385    282.94733   0.88361659 
   39120      1212214    99.994958   -384.47917    171.58793    83.965198    84.138206    384.47917   0.88409285 
   39140    1212590.2    100.43091   -111.09847    171.63131    83.943289    84.165004    111.09847   0.88456911 
   39160      1212623    99.919954   -53.357086    171.67468    83.883876    84.205612    53.357086   0.88504538 
   39180    1212981.9    100.21909   -207.18362    171.71806    83.891829    84.201279    207.18362   0.88552164 
   39200    1211867.1    99.737175    24.767981    171.76143    83.858932    84.135643   -24.767981    0.8859979 
   39220    1211859.2    100.12336    29.834763    171.80481    83.875955    84.096779   -29.834763   0.88647416 
   39240    1213289.8    100.28587   -35.766144    171.84818    83.919288    84.131342    35.766144   0.88695043 
   39260    1212928.2    100.14861   -64.142379    171.89155     83.91826    84.086076    64.142379   0.88742669 
   39280      1213228    99.763116   -150.48106    171.93493    83.915042    84.088865    150.48106   0.88790295 
   39300    1214564.8    100.09097   -135.42565     171.9783    83.967944    84.107268    135.42565   0.88837921 
   39320    1215949.5    99.890233   -283.86064    172.02168     84.03498    84.114769    283.86064   0.88885547 
   39340      1216342    99.765438    -289.3999    172.06505    84.068756    84.086916     289.3999   0.88933174 
   39360    1216638.4    99.498855    -197.0379    172.10842    84.073286    84.081677     197.0379     0.889808 
   39380    1216920.4    99.774875   -135.30735     172.1518    84.043644    84.109631    135.30735   0.89028426 
   39400    1217322.8    100.06924   -139.02896    172.19517    84.017179    84.142751    139.02896   0.89076052 
   39420    1218124.4    99.590961   -72.643077    172.23855    84.039219    84.154877    72.643077   0.89123678 
   39440    1218447.5    99.280222   -30.234633    172.28192    84.076854    84.118336    30.234633   0.89171305 
   39460    1218999.6    99.890987   -100.57367    172.32529     84.11878    84.093331    100.57367   0.89218931 
   39480    1219023.5    99.588064   -108.73451    172.36867     84.09068    84.101915    108.73451   0.89266557 
   39500    1218409.9    99.762026   -82.114873    172.41204    84.041224     84.08789    82.114873   0.89314183 
   39520    1218851.3    100.04427   -131.24223    172.45542    84.055966    84.082448    131.24223   0.89361809 
   39540    1219138.9    100.14881   -181.50198    172.49879    84.063761    84.073341    181.50198   0.89409436 
   39560    1219315.3    100.38238   -224.26531    172.54216    84.048218    84.079913    224.26531   0.89457062 
   39580    1219216.5    100.14204   -141.46557    172.58554    84.039516    84.060677    141.46557   0.89504688 
   39600    1218480.1    100.34229   -239.14284    172.62891    84.014295    84.014012    239.14284   0.89552314 
   39620    1218558.5    101.24462   -167.65066    172.67229    84.023993    83.988614    167.65066   0.89599941 
   39640    1218622.1    100.53938   -54.432252    172.71566    83.978532    84.017362    54.432252   0.89647567 
   39660    1219211.1    100.02019   -64.090999    172.75904    83.978871    84.036526    64.090999   0.89695193 
   39680    1219447.1    100.48402   -117.88566    172.80241    83.979683    84.030885    117.88566   0.89742819 
   39700    1219735.8    100.55933   -113.93926    172.84578    83.980383    84.028986    113.93926   0.89790445 
   39720    1219675.2    100.05883     6.341082    172.88916     83.93491    84.049241    -6.341082   0.89838072 
   39740    1220482.2    99.956889    -127.8545    172.93253    83.966921    84.051707     127.8545   0.89885698 
   39760      1221069    100.11654   -122.94968    172.97591    83.981911    84.056025    122.94968   0.89933324 
   39780    1220714.1    100.13676   -70.502964    173.01928    83.967954    84.024488    70.502964    0.8998095 
   39800    1222097.1    99.987781   -118.22497    173.06265     83.98827    84.078257    118.22497   0.90028576 
   39820    1222991.2    99.662636     -172.324    173.10603     83.99942    84.107526      172.324   0.90076203 
   39840    1223996.6     100.2837   -136.85915     173.1494    84.012333    84.142649    136.85915   0.90123829 
   39860    1224170.3    99.898077   -70.384505    173.19278    84.016002    84.129838    70.384505   0.90171455 
   39880    1224290.3    99.789683   -133.73533    173.23615    84.018065    84.114951    133.73533   0.90219081 
   39900    1224346.9    99.893266   -143.78676    173.27952    84.023256    84.092587    143.78676   0.90266707 
   39920    1224887.5    100.08176   -226.07565     173.3229    84.061432    84.070467    226.07565   0.90314334 
   39940    1224435.6    99.802389    -182.7886    173.36627    84.050723    84.029129     182.7886    0.9036196 
   39960    1224721.1    99.881622   -41.488932    173.40965    84.057054    84.021376    41.488932   0.90409586 
   39980    1224690.9    100.33912   -176.55566    173.45302    84.028089    84.027247    176.55566   0.90457212 
   40000    1224930.5    99.988491    -147.5701     173.4964    84.002307    84.048463     147.5701   0.90504839 
Loop time of 2934.34 on 64 procs for 40000 steps with 64040 atoms

Performance: 1.178 ns/day, 20.377 hours/ns, 13.632 timesteps/s
99.8% CPU use with 64 MPI tasks x 1 OpenMP threads

MPI task timing breakdown:
Section |  min time  |  avg time  |  max time  |%varavg| %total
---------------------------------------------------------------
Pair    | 208.86     | 713.3      | 1159.2     |1072.7 | 24.31
Bond    | 15.64      | 50.213     | 71.875     | 250.6 |  1.71
Kspace  | 107.2      | 573.41     | 1113.1     |1271.5 | 19.54
Neigh   | 1502.9     | 1510.6     | 1521       |  15.5 | 51.48
Comm    | 48.718     | 62.914     | 72.114     |  89.8 |  2.14
Output  | 1.2691     | 1.2827     | 1.3253     |   0.7 |  0.04
Modify  | 17.946     | 20.396     | 24.369     |  31.8 |  0.70
Other   |            | 2.24       |            |       |  0.08

Nlocal:        1000.62 ave        1857 max           0 min
Histogram: 14 1 1 2 8 10 5 5 2 16
Nghost:        10000.8 ave       18267 max         570 min
Histogram: 12 4 0 0 4 27 1 0 0 16
Neighs:       726507.0 ave 1.57663e+06 max           0 min
Histogram: 16 1 2 9 9 7 3 1 2 14

Total # of neighbors = 46496428
Ave neighs/atom = 726.05290
Ave special neighs/atom = 5.8719550
Neighbor list builds = 40000
Dangerous builds not checked
Total wall time: 0:48:58
