LAMMPS (29 Oct 2020)
OMP_NUM_THREADS environment is not set. Defaulting to 1 thread. (../comm.cpp:94)
  using 1 OpenMP thread(s) per MPI task
####################################################
#    This program is free software: you can redistribute it and/or modify
#    it under the terms of the GNU General Public License as published by
#    the Free Software Foundation, either version 3 of the License, or
#    (at your option) any later version.
#
#    This program is distributed in the hope that it will be useful,
#    but WITHOUT ANY WARRANTY; without even the implied warranty of
#    MERCHANTABILITY or FITNESS FOR A PARTICULAR PURPOSE.  See the
#    GNU General Public License for more details.


units		real        ## defines the units style used herein. More information: https://docs.lammps.org/units.html
atom_style	full        ## defines the atom style used herein. More information: https://docs.lammps.org/atom_style.html

# Styles
pair_style      lj/cut/coul/long 15.0 10.0      ## sets the formula(s) LAMMPS uses to compute pairwise interactions; here, lennard-jones (LJ) with long-range Coulomb interaction. More: https://docs.lammps.org/pair_lj_cut_coul.html
pair_modify     shift no                        ## the shift keyword determines whether a Lennard-Jones potential is shifted at its cutoff to 0.0. More: https://docs.lammps.org/pair_modify.html
kspace_style    pppm 1.0e-4                     ## defines a long-range solver for LAMMPS to compute long-range Coulombic interactions. Note: requires use of a matching pair style, i.e. PPPM with coul/long. More: https://docs.lammps.org/kspace_style.html
bond_style      harmonic                        ## defined based off the forcefield used to construct the system; models the atoms' interactions
angle_style     harmonic
dihedral_style  opls
improper_style  cvff
special_bonds   lj 0 0 1 coul 0 0 1

read_data       100K_PS.lmps      ## input lammps datafile, equilibriated until structure nears experimental properties
Reading data file ...
  orthogonal box = (56.625901 56.625901 56.625901) to (143.37410 143.37410 143.37410)
  4 by 4 by 4 MPI processor grid
  reading atoms ...
  64040 atoms
  reading velocities ...
  64040 velocities
  scanning bonds ...
  2 = max bonds/atom
  scanning angles ...
  6 = max angles/atom
  scanning dihedrals ...
  12 = max dihedrals/atom
  scanning impropers ...
  3 = max impropers/atom
  reading bonds ...
  68020 bonds
  reading angles ...
  119880 angles
  reading dihedrals ...
  191660 dihedrals
  reading impropers ...
  51880 impropers
Finding 1-2 1-3 1-4 neighbors ...
  special bond factors lj:    0.0      0.0      1.0     
  special bond factors coul:  0.0      0.0      1.0     
     4 = max # of 1-2 neighbors
     8 = max # of 1-3 neighbors
    12 = max # of special neighbors
  special bonds CPU = 1.573 seconds
  read_data CPU = 3.316 seconds

dielectric      1.0
neighbor    	1.0 bin
neigh_modify	delay 0 every 1 check no        ## this is to make sure that the neighbor list is updated every timestep, and the atoms don't get lost as the system is being deformed ##

timestep	    1.0                             ## unit = fs, per "real" unit style
run_style       verlet                          ## defines algorithm used for simulation computation; verlet integration is a numerical method used to integrate Newton's equations of motion.

variable stress equal press*-1                         ## computes stress as the negative of press values
variable engStrain equal (lx-91.07191)/91.07191      ## computes engineering strain; lx_0 must be found and inputted manually (for now)

thermo		    20                                                               ## output log data (headers in thermo_style), recorded at every timestep in numList.txt
thermo_style    custom step vol temp press lx ly lz v_stress v_engStrain         ## data headers of output log file. More: https://docs.lammps.org/thermo_style.html

################# Deformation ##################

fix 1 all npt temp 100 100 100 y 1 1 100.0 z 1 1 100.0      ## stress normal to the x direction can vary; external pressure (y and z) = 1atm ##

fix 2 all deform 1 x scale 2.0 remap x                      ## sets a uniaxial (x-direction) deformation in motion, scaling a set amount (here, 4.0x) the initial length


################# Dumping ##################

reset_timestep 0

dump dump2 all custom 4000 sim.lammpstrj id mol type q xs ys zs ix iy iz

restart 8000 PS.restart

run 		80000              ## this depends on the overall strain rate, where strain rate = deformScale / runTimeSteps (consider units!)
PPPM initialization ...
WARNING: System is not charge neutral, net charge = -8.9366436e-05 (../kspace.cpp:313)
  using 12-bit tables for long-range coulomb (../kspace.cpp:328)
  G vector (1/distance) = 0.20679655
  grid = 24 24 24
  stencil order = 5
  estimated absolute RMS force accuracy = 0.021807597
  estimated relative force accuracy = 6.5672931e-05
  using double precision FFTW3
  3d grid and FFT values/proc = 1331 216
Neighbor list info ...
  update every 1 steps, delay 0 steps, check no
  max neighbors/atom: 2000, page size: 100000
  master list distance cutoff = 16
  ghost atom cutoff = 16
  binsize = 8, bins = 11 11 11
  1 neighbor lists, perpetual/occasional/extra = 1 0 0
  (1) pair lj/cut/coul/long, perpetual
      attributes: half, newton on
      pair build: half/bin/newton
      stencil: half/bin/3d/newton
      bin: standard
Per MPI rank memory allocation (min/avg/max) = 18.50 | 18.92 | 19.30 Mbytes
Step Volume Temp Press Lx Ly Lz v_stress v_engStrain 
       0    652801.85      100.312     14228.52    86.748198    86.748198    86.748198    -14228.52 -0.047475807 
      20    657129.08    102.63294    87.388959    86.769885    87.023873    87.024846   -87.388959 -0.047237676 
      40    658597.82    102.68689    133.78541    86.791572    87.104201    87.117145   -133.78541 -0.046999545 
      60    655299.36    102.74568   -613.73068    86.813259    86.867927    86.894887    613.73068 -0.046761414 
      80    652647.67    102.10051    159.53252    86.834946    86.663134     86.72611   -159.53252 -0.046523283 
     100    652173.75    102.26894    523.15074    86.856633    86.647722    86.656906   -523.15074 -0.046285152 
     120    649439.95    102.06407   -470.25222     86.87832    86.457182    86.462245    470.25222 -0.046047021 
     140    650492.91    102.27182     752.9662    86.900007    86.515036    86.522919    -752.9662  -0.04580889 
     160    650958.84     101.9492   -641.92822    86.921694    86.546398    86.531922    641.92822 -0.045570759 
     180    651013.29     101.7431   -76.521758    86.943381    86.552021    86.511953    76.521758 -0.045332628 
     200    651143.56    101.16112     5.306078    86.965068    86.528741     86.53096    -5.306078 -0.045094497 
     220    651292.54    101.47112   -328.55096    86.986755    86.498581     86.55935    328.55096 -0.044856366 
     240    652159.68    101.14064    364.51225    87.008442    86.534497    86.617028   -364.51225 -0.044618235 
     260    651318.74    100.76893     -316.772    87.030129    86.485523    86.532755      316.772 -0.044380104 
     280    651892.73    101.06683    189.65936    87.051816    86.527413    86.545517   -189.65936 -0.044141973 
     300    651976.62    100.47449   -180.25222    87.073503    86.524636    86.537874    180.25222 -0.043903842 
     320    651837.07    100.35027    98.065567     87.09519    86.493682    86.528763   -98.065567 -0.043665711 
     340    652402.66    99.983794    132.66878    87.116877    86.521193    86.554754   -132.66878  -0.04342758 
     360    652100.79    100.14223   -490.41801    87.138564    86.516041    86.498323    490.41801 -0.043189449 
     380    652748.91    100.37753    205.83976    87.160251    86.569941    86.508854   -205.83976 -0.042951318 
     400    652289.89    100.37952   -21.821468    87.181939    86.521635     86.47477    21.821468 -0.042713186 
     420    652843.38    99.563188    15.650543    87.203626    86.525117    86.523139   -15.650543 -0.042475055 
     440    652335.35    99.865406    59.061151    87.225313    86.460279    86.499132   -59.061151 -0.042236924 
     460     652229.4    99.670431    -113.0195       87.247    86.416756    86.507132     113.0195 -0.041998793 
     480    652958.46    99.757293   -271.60528    87.268687    86.450308    86.548705    271.60528 -0.041760662 
     500    652090.99    100.02007   -437.30382    87.290374    86.364901    86.497701    437.30382 -0.041522531 
     520    652694.01    99.583077   -97.864919    87.312061    86.395028    86.526002    97.864919   -0.0412844 
     540    652665.58     99.46393   -614.69699    87.333748    86.388995    86.506789    614.69699 -0.041046269 
     560    652906.67    99.692297   -109.65833    87.355435    86.401689    86.504548    109.65833 -0.040808138 
     580    652925.14    99.570534   -368.54604    87.377122    86.386376    86.500855    368.54604 -0.040570007 
     600    652769.81    99.976193    -376.9177    87.398809    86.346025    86.499221     376.9177 -0.040331876 
     620    653113.35     99.54825   -342.28475    87.420496    86.377331    86.491916    342.28475 -0.040093745 
     640    652843.42    99.687208   -310.72121    87.442183    86.344144    86.467947    310.72121 -0.039855614 
     660    653778.85    99.787439   -160.86546     87.46387    86.405287    86.509113    160.86546 -0.039617483 
     680    653118.59    100.07628   -338.22738    87.485557    86.331172    86.474497    338.22738 -0.039379352 
     700    653178.94    99.704867    142.87748    87.507244    86.348301    86.443903   -142.87748 -0.039141221 
     720    653940.77    99.938367    52.103333    87.528931    86.353978    86.517596   -52.103333  -0.03890309 
     740    653557.47    100.06047   -85.215142    87.550618     86.31882    86.480675    85.215142 -0.038664959 
     760    653481.33    99.902096    53.772084    87.572305     86.29464    86.473409   -53.772084 -0.038426828 
     780    653020.71    100.19606    25.533845    87.593992    86.283711    86.402005   -25.533845 -0.038188697 
     800    653805.48    100.03195    187.05239     87.61568    86.330665    86.437389   -187.05239 -0.037950566 
     820    653901.31    100.20307   -128.27474    87.637367    86.307266    86.452096    128.27474 -0.037712434 
     840    653726.28    99.881164    119.98773    87.659054    86.272638    86.442256   -119.98773 -0.037474303 
     860    654280.22    100.69568   -68.618553    87.680741    86.306558     86.46011    68.618553 -0.037236172 
     880    653895.24    100.34283   -408.15003    87.702428    86.280309    86.414151    408.15003 -0.036998041 
     900    654569.42    100.19231    34.557714    87.724115    86.310208    86.451902   -34.557714  -0.03675991 
     920    654303.58    100.66952   -243.91446    87.745802    86.282759    86.422918    243.91446 -0.036521779 
     940    654446.96    100.36379   -254.11482    87.767489    86.258849    86.444451    254.11482 -0.036283648 
     960    654350.64    100.48002    16.627628    87.789176    86.233474    86.435804   -16.627628 -0.036045517 
     980    654614.11    100.61134   -296.53281    87.810863    86.224655    86.458092    296.53281 -0.035807386 
    1000     654839.7    99.857045    89.426819     87.83255    86.230763    86.460408   -89.426819 -0.035569255 
    1020    654623.02    99.892995   -132.11778    87.854237    86.236075     86.40514    132.11778 -0.035331124 
    1040    654966.43    100.23149    54.566102    87.875924    86.218371     86.44688   -54.566102 -0.035092993 
    1060    654822.82    100.34033    275.07974    87.897611    86.191179     86.43386   -275.07974 -0.034854862 
    1080    655208.95     99.77796   -206.96206    87.919298    86.213476    86.441134    206.96206 -0.034616731 
    1100    655314.19    99.738447   -20.828705    87.940985    86.233484    86.413642    20.828705   -0.0343786 
    1120    655041.33    99.370134   -215.95863    87.962672    86.216834    86.373043    215.95863 -0.034140469 
    1140    655547.02    99.863637   -14.798734    87.984359    86.227531    86.407695    14.798734 -0.033902338 
    1160    655345.88    99.935795   -90.397235    88.006046    86.178409    86.409121    90.397235 -0.033664207 
    1180    655452.26    99.904549   -179.91797    88.027733    86.184431    86.395819    179.91797 -0.033426076 
    1200    655449.53    99.893438   -77.312453     88.04942    86.191073    86.367523    77.312453 -0.033187945 
    1220    655646.42    99.659082   -486.31147    88.071108    86.194067    86.369193    486.31147 -0.032949814 
    1240    655659.08    99.779202   -254.75583    88.092795    86.173638    86.370069    254.75583 -0.032711682 
    1260    655571.72     99.77134   -463.68981    88.114482    86.167619    86.343337    463.68981 -0.032473551 
    1280    655957.79    100.23953   -441.44353    88.136169    86.217365     86.32309    441.44353  -0.03223542 
    1300    655738.29     99.82249   -238.50013    88.157856    86.176513    86.313874    238.50013 -0.031997289 
    1320    656010.96    99.799679   -624.22497    88.179543    86.162702    86.342365    624.22497 -0.031759158 
    1340    656011.23    99.774986   -268.34079     88.20123    86.173665    86.310189    268.34079 -0.031521027 
    1360     656050.2    99.604713   -345.67779    88.222917    86.200827    86.266908    345.67779 -0.031282896 
    1380    656267.35    99.785419   -280.17717    88.244604    86.201958    86.273121    280.17717 -0.031044765 
    1400    655991.11     100.1774   -286.02518    88.266291    86.177852    86.239735    286.02518 -0.030806634 
    1420    656155.57     100.0276   -347.77496    88.287978    86.148186    86.269864    347.77496 -0.030568503 
    1440    656097.28    99.793627   -13.508965    88.309665    86.127011    86.262218    13.508965 -0.030330372 
    1460    656366.05    100.04551   -362.35519    88.331352    86.149578    86.253769    362.35519 -0.030092241 
    1480    656289.41    100.14454    95.631691    88.353039     86.13004    86.242087   -95.631691  -0.02985411 
    1500    656350.38     100.3056    23.731294    88.374726    86.112145    86.246852   -23.731294 -0.029615979 
    1520    656421.97    100.01601   -356.02923    88.396413    86.103504    86.243752    356.02923 -0.029377848 
    1540    656003.42    100.30498   -187.89638      88.4181    86.060753    86.210425    187.89638 -0.029139717 
    1560    656265.99    100.21019   -412.46111    88.439787    86.082711    86.201787    412.46111 -0.028901586 
    1580     656555.9    100.37723   -518.71268    88.461474    86.088914    86.212514    518.71268 -0.028663455 
    1600    656120.51    100.48611   -524.39765    88.483161    86.043069    86.180118    524.39765 -0.028425324 
    1620    655954.99    100.35944   -269.20738    88.504849    86.010496    86.169887    269.20738 -0.028187193 
    1640    656322.77    100.44987   -582.05857    88.526536    86.016702     86.19086    582.05857 -0.027949062 
    1660    656341.39    99.832097   -302.45841    88.548223    86.042896    86.145961    302.45841  -0.02771093 
    1680    656016.31    100.56768    107.43397     88.56991    86.013706    86.111425   -107.43397 -0.027472799 
    1700    656519.99    100.01073   -84.932964    88.591597    86.039662    86.130452    84.932964 -0.027234668 
    1720    656771.83    100.38185   -77.729128    88.613284    86.041997    86.140067    77.729128 -0.026996537 
    1740    656438.24    99.683993     221.6135    88.634971    86.052428    86.064814    -221.6135 -0.026758406 
    1760    656542.26    99.971671    253.03107    88.656658    86.086856     86.02298   -253.03107 -0.026520275 
    1780    657147.97     99.87045   -497.46618    88.678345    86.125509    86.042652    497.46618 -0.026282144 
    1800    657154.49     99.61745    123.90453    88.700032    86.096774    86.051178   -123.90453 -0.026044013 
    1820    657167.67    99.612953   -187.05518    88.721719    86.082197    86.046438    187.05518 -0.025805882 
    1840    657318.18    99.435502   -537.94803    88.743406    86.051051    86.076257    537.94803 -0.025567751 
    1860    657387.58    99.578613   -236.48224    88.765093    86.029835    86.085537    236.48224  -0.02532962 
    1880    657514.13    99.958519   -326.71605     88.78678    86.021602    86.089315    326.71605 -0.025091489 
    1900    657641.38    99.749925     -189.658    88.808467    86.026657    86.079891      189.658 -0.024853358 
    1920     657563.2    99.671278   -596.94482    88.830154    86.026568    86.048734    596.94482 -0.024615227 
    1940    657586.31    100.32146   -277.23481    88.851841    86.030707    86.026617    277.23481 -0.024377096 
    1960    657693.59    100.41751   -155.44729    88.873528    86.031512    86.018849    155.44729 -0.024138965 
    1980    657538.95    100.38648   -274.54451    88.895215    85.983344    86.025809    274.54451 -0.023900834 
    2000    657595.07    100.75036   -131.18277    88.916902     85.96927    86.026248    131.18277 -0.023662703 
    2020    657654.79    99.966984   -375.60501     88.93859    85.989726    85.992621    375.60501 -0.023424572 
    2040    657537.35    99.978996   -391.75288    88.960277     85.98792     85.95811    391.75288 -0.023186441 
    2060    657750.21    100.35834   -671.47967    88.981964    85.972353    85.980546    671.47967 -0.022948309 
    2080    657483.99    100.47194   -411.86284    89.003651    85.921215    85.975944    411.86284 -0.022710178 
    2100    657431.24    100.18464   -494.51366    89.025338    85.920726    85.948592    494.51366 -0.022472047 
    2120    657422.31    100.01003   -663.78983    89.047025    85.887636    85.959598    663.78983 -0.022233916 
    2140    657531.18    100.12982   -372.31552    89.068712    85.894711     85.94582    372.31552 -0.021995785 
    2160    657539.34    99.748549   -476.60305    89.090399    85.881018    85.939665    476.60305 -0.021757654 
    2180    657803.87    99.861352   -415.48897    89.112086    85.912736    85.921583    415.48897 -0.021519523 
    2200     657702.9    99.519405   -379.29325    89.133773    85.881445    85.918784    379.29325 -0.021281392 
    2220     657387.4    99.717375   -249.67361     89.15546     85.84171    85.896421    249.67361 -0.021043261 
    2240     657599.4    100.03523   -260.45664    89.177147     85.85173      85.8932    260.45664  -0.02080513 
    2260    657756.95    99.323284    -525.4074    89.198834    85.865602    85.879015     525.4074 -0.020566999 
    2280    657962.67    99.632932   -461.70943    89.220521    85.865055    85.885539    461.70943 -0.020328868 
    2300    658127.31    99.629154   -347.98651    89.242208    85.856044    85.895168    347.98651 -0.020090737 
    2320    658152.17    99.816119   -546.57763    89.263895     85.81749    85.916123    546.57763 -0.019852606 
    2340    658025.53     100.0789   -508.25325    89.285582    85.797723    85.898512    508.25325 -0.019614475 
    2360    658176.29    100.08404   -551.49985    89.307269    85.814852    85.880183    551.49985 -0.019376344 
    2380    658791.57     99.99675   -697.61923    89.328956      85.8699    85.884505    697.61923 -0.019138213 
    2400    658620.08    99.941182   -723.95391    89.350643    85.819766    85.891455    723.95391 -0.018900082 
    2420    658542.41    99.805451   -665.12896    89.372331    85.789483    85.890793    665.12896 -0.018661951 
    2440    658909.51    100.00759   -282.28917    89.394018     85.78551    85.921803    282.28917  -0.01842382 
    2460    658893.33    100.41873   -446.63588    89.415705    85.780893    85.903476    446.63588 -0.018185689 
    2480    659301.21    100.14017   -505.12299    89.437392    85.762113     85.95463    505.12299 -0.017947557 
    2500    659158.13     99.95482   -118.63545    89.459079    85.766344    85.910905    118.63545 -0.017709426 
    2520    658583.62    99.941118    58.482777    89.480766    85.716636    85.864988   -58.482777 -0.017471295 
    2540    658592.13      100.041   -56.078194    89.502453    85.722632    85.839287    56.078194 -0.017233164 
    2560    658883.02    100.05362   -201.64263     89.52414    85.725031    85.853995    201.64263 -0.016995033 
    2580    658963.66    100.29672   -60.439203    89.545827    85.733347     85.83538    60.439203 -0.016756902 
    2600    659082.44     100.8733   -158.66893    89.567514    85.714978    85.848459    158.66893 -0.016518771 
    2620    659137.67     99.93537   -449.20744    89.589201    85.697426    85.852449    449.20744  -0.01628064 
    2640    659029.03    99.866471   -223.30011    89.610888     85.68338    85.831592    223.30011 -0.016042509 
    2660    659429.36    99.581551   -205.75083    89.632575    85.675098    85.871252    205.75083 -0.015804378 
    2680    659603.88     100.1436   -613.42077    89.654262    85.663499    85.884828    613.42077 -0.015566247 
    2700    659554.48    100.15303   -630.41005    89.675949    85.652119    85.869035    630.41005 -0.015328116 
    2720       659708    99.736443   -315.55628    89.697636    85.678176    85.842141    315.55628 -0.015089985 
    2740    659887.58    99.353614   -287.80347    89.719323    85.652892    85.870093    287.80347 -0.014851854 
    2760    659846.04    99.406162   -520.44774     89.74101    85.627085     85.86981    520.44774 -0.014613723 
    2780    659618.28    99.428154   -282.46043    89.762697    85.585886    85.860741    282.46043 -0.014375592 
    2800    659747.77     99.62877    -411.7687    89.784384    85.613465    85.829197     411.7687 -0.014137461 
    2820    660211.53    99.665188   -410.59665    89.806072    85.639784    85.842399    410.59665  -0.01389933 
    2840    659931.91    99.611615   -218.38657    89.827759    85.608351    85.816824    218.38657 -0.013661199 
    2860    659824.86     99.95284   -449.37998    89.849446    85.599553    85.791009    449.37998 -0.013423068 
    2880    659845.93    99.718216    -242.9788    89.871133    85.589303    85.783316     242.9788 -0.013184937 
    2900    660093.71    99.810638   -722.95856     89.89282    85.586914    85.797223    722.95856 -0.012946805 
    2920    660079.99    100.16476   -693.18242    89.914507    85.593811    85.767833    693.18242 -0.012708674 
    2940    659911.66    100.31285   -458.91656    89.936194    85.586443    85.732665    458.91656 -0.012470543 
    2960       659417     100.1016   -425.17246    89.957881    85.533937    85.700324    425.17246 -0.012232412 
    2980    659863.33     100.3689   -473.30202    89.979568    85.576329    85.695189    473.30202 -0.011994281 
    3000    660208.22    100.03703   -656.87607    90.001255    85.595899     85.69972    656.87607  -0.01175615 
    3020    660071.62    100.20003    -540.6209    90.022942    85.579659    85.677602     540.6209 -0.011518019 
    3040    660317.85    100.43217   -616.11292    90.044629    85.570945    85.697647    616.11292 -0.011279888 
    3060    660677.76     100.4051   -598.26678    90.066316    85.622574     85.67202    598.26678 -0.011041757 
    3080    660919.78    99.982292   -458.24474    90.088003    85.633701    85.671638    458.24474 -0.010803626 
    3100    661149.17    100.00818   -600.76673     90.10969    85.638342    85.676105    600.76673 -0.010565495 
    3120    661154.96    99.792699   -666.15876    90.131377    85.612112    85.682483    666.15876 -0.010327364 
    3140    661077.02    100.40078   -781.07692    90.153064    85.589583    85.674318    781.07692 -0.010089233 
    3160    661029.51    100.14694   -662.44742    90.174751    85.564274    85.672891    662.44742 -0.0098511018 
    3180    661286.68    99.748989   -821.24832    90.196438    85.554151    85.695753    821.24832 -0.0096129708 
    3200    661043.21    99.399211   -912.43644    90.218125    85.532872    85.664916    912.43644 -0.0093748397 
    3220    660712.17    99.949923   -439.67369    90.239812    85.519188    85.615137    439.67369 -0.0091367087 
    3240    661239.52    99.941779    -414.6163      90.2615    85.553893    85.628134     414.6163 -0.0088985777 
    3260    661311.45    99.639096   -669.34336    90.283187    85.549512    85.621262    669.34336 -0.0086604466 
    3280    661111.84    99.480749   -268.87157    90.304874     85.54116    85.583218    268.87157 -0.0084223156 
    3300    661259.44    99.680784   -160.25766    90.326561    85.533925    85.589012    160.25766 -0.0081841845 
    3320    661570.15    99.815703   -388.98693    90.348248    85.519468    85.623146    388.98693 -0.0079460535 
    3340    661550.73    99.724966   -282.67212    90.369935    85.501117    85.618456    282.67212 -0.0077079224 
    3360    661594.08    99.463483   -369.56851    90.391622    85.487154    85.617506    369.56851 -0.0074697914 
    3380     661945.3    99.966536    -438.0554    90.413309    85.503664    85.625872     438.0554 -0.0072316603 
    3400    661712.09    100.10391   -459.83491    90.434996    85.479736    85.599134    459.83491 -0.0069935293 
    3420    662359.21    99.992343   -531.12226    90.456683    85.522352    85.619617    531.12226 -0.0067553982 
    3440    662494.09     99.86516   -622.31533     90.47837    85.505685    85.633214    622.31533 -0.0065172672 
    3460    661940.63    99.839334   -516.45557    90.500057    85.480494    85.566381    516.45557 -0.0062791361 
    3480    662117.33    100.25259   -416.52682    90.521744     85.49742    85.551777    416.52682 -0.0060410051 
    3500    662722.04    100.00937    -467.0815    90.543431    85.548054    85.558731     467.0815 -0.005802874 
    3520    662427.67    100.24151   -458.95076    90.565118     85.51615    85.532145    458.95076 -0.005564743 
    3540    662377.96    100.23749   -382.00558    90.586805    85.490092    85.531314    382.00558 -0.0053266119 
    3560    662295.08    99.694831   -356.72171    90.608492    85.469625    85.520616    356.72171 -0.0050884809 
    3580    662122.36    100.41536    -301.0277    90.630179    85.451624    85.495862     301.0277 -0.0048503498 
    3600    662150.59    99.959621   -385.33452    90.651866    85.429178    85.501511    385.33452 -0.0046122188 
    3620    662239.87    100.10979   -271.22436    90.673553    85.399124    85.522675    271.22436 -0.0043740877 
    3640    662376.11    100.08689   -483.66567    90.695241    85.402457    85.516476    483.66567 -0.0041359567 
    3660     662428.9    99.834675   -663.64423    90.716928    85.382945    85.522386    663.64423 -0.0038978256 
    3680     662563.1    100.29314   -491.62387    90.738615    85.383238    85.518974    491.62387 -0.0036596946 
    3700    662934.17    100.09886   -378.51057    90.760302    85.386676    85.542979    378.51057 -0.0034215635 
    3720    663007.18    99.977169   -675.50082    90.781989    85.384525    85.534116    675.50082 -0.0031834325 
    3740    663399.21     100.1901   -607.80071    90.803676    85.405981    85.542756    607.80071 -0.0029453014 
    3760    663628.53    99.929241   -581.12084    90.825363    85.409008     85.54886    581.12084 -0.0027071704 
    3780    663379.75    99.460286   -830.65005     90.84705    85.387362    85.518049    830.65005 -0.0024690394 
    3800    663468.16    99.790342   -535.36452    90.868737    85.388059    85.508336    535.36452 -0.0022309083 
    3820       663763    99.367782   -652.12334    90.890424    85.419631    85.494311    652.12334 -0.0019927773 
    3840    663612.09    99.436967   -748.99508    90.912111    85.406898    85.467225    748.99508 -0.0017546462 
    3860    663268.39    99.385867   -553.00993    90.933798    85.387787      85.4217    553.00993 -0.0015165152 
    3880    663360.62    99.420597   -387.91965    90.955485    85.365647     85.43536    387.91965 -0.0012783841 
    3900    663772.94    100.26258   -654.08956    90.977172    85.378525    85.455193    654.08956 -0.0010402531 
    3920    663914.94    99.729292   -852.75504    90.998859    85.382986     85.44864    852.75504 -0.00080212201 
    3940    664163.37    100.07453   -474.39443    91.020546    85.406006    85.437213    474.39443 -0.00056399097 
    3960    664231.43    100.23534   -698.10143    91.042233     85.37196    85.459681    698.10143 -0.00032585992 
    3980    664020.43    99.629281   -590.61807     91.06392    85.311217    85.473002    590.61807 -8.7728869e-05 
    4000    664406.25    100.04271   -672.62782    91.085607    85.339949    85.473517    672.62782 0.00015040218 
    4020    664470.83    99.858615   -734.85896    91.107294    85.318175    85.483287    734.85896 0.00038853323 
    4040     664255.8    100.09184   -643.91597    91.128982    85.280493    85.473037    643.91597 0.00062666427 
    4060    664286.21     100.1232   -778.31319    91.150669    85.277787    85.459325    778.31319 0.00086479532 
    4080    664776.39    100.05012   -840.31177    91.172356     85.30953    85.470228    840.31177 0.0011029264 
    4100    664642.73    100.11158   -846.91585    91.194043    85.266472    85.475863    846.91585 0.0013410574 
    4120    664468.12    100.18947   -450.55825     91.21573    85.268739    85.430819    450.55825 0.0015791885 
    4140    664531.56    100.62393   -523.92992    91.237417    85.270442    85.416961    523.92992 0.0018173195 
    4160    664626.49    100.56425   -603.17032    91.259104    85.247376    85.431971    603.17032 0.0020554506 
    4180    664451.41    100.16843   -186.66919    91.280791    85.224055     85.41254    186.66919 0.0022935816 
    4200    664521.63    100.36674   -489.27079    91.302478    85.243986    85.381309    489.27079 0.0025317127 
    4220    664740.49    100.44008    -551.1225    91.324165    85.247232    85.385896     551.1225 0.0027698437 
    4240    664952.67    99.993087   -522.81377    91.345852    85.229441    85.410697    522.81377 0.0030079748 
    4260    664747.75    99.832805   -631.22651    91.367539    85.218751    85.374817    631.22651 0.0032461058 
    4280    665037.54    100.01811    -652.4229    91.389226    85.239405    85.371076     652.4229 0.0034842369 
    4300    665063.29    100.03026    -913.8507    91.410913    85.229347    85.364198     913.8507 0.0037223679 
    4320     665015.9    99.925979   -565.03965      91.4326     85.18836    85.378929    565.03965 0.0039604989 
    4340    664996.39    99.578323   -619.07052    91.454287    85.190405    85.354129    619.07052   0.00419863 
    4360    664702.11    99.787375   -611.46445    91.475974    85.157958    85.328631    611.46445  0.004436761 
    4380    664719.18    100.20482   -476.27948    91.497661    85.159411     85.30914    476.27948 0.0046748921 
    4400    664671.41    100.06716   -325.70173    91.519348    85.169518    85.272675    325.70173 0.0049130231 
    4420    664681.69    100.24705   -35.778342    91.541035    85.146262    85.277078    35.778342 0.0051511542 
    4440    664663.86    100.46712   -511.99642    91.562723    85.088532    85.312434    511.99642 0.0053892852 
    4460    664782.41    99.405586   -435.05393     91.58441    85.091373    85.304597    435.05393 0.0056274163 
    4480     665277.5    100.02221   -594.88733    91.606097    85.150015    85.289139    594.88733 0.0058655473 
    4500     665527.4    99.771884   -674.15267    91.627784    85.190701    85.260242    674.15267 0.0061036784 
    4520    665973.05    100.12248   -817.02874    91.649471    85.215248    85.272576    817.02874 0.0063418094 
    4540    665846.33    100.01993   -877.51075    91.671158     85.18744    85.264005    877.51075 0.0065799405 
    4560    665481.34    99.594578   -785.68595    91.692845    85.166843    85.217715    785.68595 0.0068180715 
    4580    665765.84    99.833992   -901.09045    91.714532    85.175069    85.225757    901.09045 0.0070562026 
    4600    665980.52    100.23876   -728.88367    91.736219    85.171153    85.237002    728.88367 0.0072943336 
    4620    666120.64    100.47626   -937.18442    91.757906    85.150711    85.255247    937.18442 0.0075324647 
    4640     665753.7    100.71275   -614.81299    91.779593    85.089928    85.249002    614.81299 0.0077705957 
    4660    665802.07    99.817108   -382.06421     91.80128    85.049507    85.275564    382.06421 0.0080087268 
    4680     665986.8    100.48838    -630.2069    91.822967     85.05273    85.275848     630.2069 0.0082468578 
    4700    666214.87    99.937469   -587.05566    91.844654    85.086567    85.250992    587.05566 0.0084849889 
    4720    666010.83    99.337965   -703.44291    91.866341     85.04676    85.244643    703.44291 0.0087231199 
    4740     666195.4    99.419467   -616.01371    91.888028    85.035164    85.259768    616.01371  0.008961251 
    4760    666473.55    99.446508   -981.54641    91.909715    85.075352    85.234957    981.54641  0.009199382 
    4780     666211.7    100.05676   -749.70048    91.931402    85.091144    85.165561    749.70048 0.0094375131 
    4800    666676.73    99.100139   -789.21628    91.953089     85.10969     85.18634    789.21628 0.0096756441 
    4820    666740.18    99.675746   -933.44704    91.974776    85.113642    85.170406    933.44704 0.0099137752 
    4840    666845.08    99.781808   -684.48126    91.996463    85.103313    85.174061    684.48126  0.010151906 
    4860    667148.72    99.872995   -726.30611    92.018151    85.100335    85.195741    726.30611  0.010390037 
    4880    667064.99    99.923733   -701.07759    92.039838    85.071952    85.193391    701.07759  0.010628168 
    4900    667112.84    99.871331   -743.39539    92.061525    85.056827    85.194578    743.39539  0.010866299 
    4920    667458.91    99.917037   -719.07274    92.083212    85.094776    85.180694    719.07274   0.01110443 
    4940    667873.84    100.16205   -746.32376    92.104899    85.111567    85.196768    746.32376  0.011342561 
    4960    667818.72    99.350383   -671.32465    92.126586    85.107769    85.173483    671.32465  0.011580692 
    4980    667822.74    99.850986   -734.00687    92.148273    85.087583    85.174151    734.00687  0.011818824 
    5000    668165.57    99.814336   -804.20648     92.16996    85.090646    85.194758    804.20648  0.012056955 
    5020    667971.62    100.21549   -634.79211    92.191647    85.044093    85.196604    634.79211  0.012295086 
    5040    668491.77    99.761938   -574.75388    92.213334    85.080747     85.20617    574.75388  0.012533217 
    5060    668486.49    100.32923   -545.41735    92.235021    85.060447    85.205793    545.41735  0.012771348 
    5080     668388.2    100.53443   -431.64355    92.256708    85.006862    85.226928    431.64355  0.013009479 
    5100     668333.6    100.14281   -581.71476    92.278395    84.968756    85.238148    581.71476   0.01324761 
    5120    668619.31    100.34489   -797.76071    92.300082    84.971312    85.251986    797.76071  0.013485741 
    5140    668294.02    100.43035   -446.14028    92.321769    84.923211    85.238745    446.14028  0.013723872 
    5160    668494.58    100.38075   -605.39241    92.343456    84.894318    85.273314    605.39241  0.013962003 
    5180    668912.04     100.0353   -958.83228    92.365143     84.91157    85.289198    958.83228  0.014200134 
    5200    668520.66    99.660535   -835.63145     92.38683    84.884553    85.246411    835.63145  0.014438265 
    5220    668089.01    99.838376   -697.80381    92.408517    84.855765    85.200271    697.80381  0.014676396 
    5240    668276.43    99.900462   -752.23911    92.430204    84.827079    85.232988    752.23911  0.014914527 
    5260    668492.55    100.22038    -737.7089    92.451892    84.843231    85.224325     737.7089  0.015152658 
    5280    668131.56    100.10848   -442.41207    92.473579    84.818755    85.182902    442.41207  0.015390789 
    5300    668144.11    99.931121   -310.95204    92.495266    84.803383    85.179967    310.95204   0.01562892 
    5320     668551.2    100.12039   -539.11628    92.516953     84.81248    85.202746    539.11628  0.015867051 
    5340    668600.44    99.890315   -513.28455     92.53864    84.819985    85.181514    513.28455  0.016105182 
    5360    668740.17    100.19424   -658.02183    92.560327     84.85728    85.141918    658.02183  0.016343313 
    5380    668698.69    100.03881   -468.25148    92.582014    84.858963    85.115005    468.25148  0.016581445 
    5400    668976.81    99.881649   -1031.6433    92.603701    84.867438    85.121963    1031.6433  0.016819576 
    5420     669240.4    99.794927   -920.13629    92.625388    84.862698    85.140319    920.13629  0.017057707 
    5440     669333.7    100.03194    -835.1575    92.647075     84.89731    85.097549     835.1575  0.017295838 
    5460    669815.85    99.544979    -1012.079    92.668762    84.928045    85.108107     1012.079  0.017533969 
    5480    669787.55    99.776426   -899.16767    92.690449    84.918566    85.094097    899.16767    0.0177721 
    5500    669578.63    99.944443   -962.13472    92.712136    84.861364    85.104982    962.13472  0.018010231 
    5520    669396.01    100.23323   -365.36544    92.733823    84.835061    85.088248    365.36544  0.018248362 
    5540    669522.13    99.917033    -731.2331     92.75551    84.829902    85.089556     731.2331  0.018486493 
    5560    669460.18    99.686519    -410.9357    92.777197    84.781444    85.110411     410.9357  0.018724624 
    5580    669287.38    100.18894    -373.6279    92.798884    84.737087    85.113089     373.6279  0.018962755 
    5600    669261.77    100.47004   -826.08554    92.820571    84.702525    85.124666    826.08554  0.019200886 
    5620    669417.64    99.791315   -590.57808    92.842258    84.688956    85.138243    590.57808  0.019439017 
    5640    669696.64     99.86624     -1044.76    92.863945    84.692066    85.150708      1044.76  0.019677148 
    5660    669529.33    99.849012   -735.93837    92.885633    84.703758     85.09781    735.93837  0.019915279 
    5680    669418.12    100.01886   -1031.2503     92.90732    84.674761    85.092944    1031.2503   0.02015341 
    5700    669644.81    99.964654   -945.15261    92.929007    84.681906    85.094715    945.15261  0.020391541 
    5720    669597.53    99.807528   -787.01773    92.950694    84.679013     85.07176    787.01773  0.020629672 
    5740    669723.23    100.33685   -1021.5178    92.972381    84.676099     85.07081    1021.5178  0.020867803 
    5760    669445.34    100.05279   -495.95595    92.994068    84.654379    85.037493    495.95595  0.021105934 
    5780    669701.36    100.12116   -801.76602    93.015755    84.676124     85.02834    801.76602  0.021344065 
    5800    669562.44    100.20274   -554.68869    93.037442    84.638992    85.028171    554.68869  0.021582197 
    5820    669823.17    100.02153   -809.88478    93.059129    84.630824    85.049665    809.88478  0.021820328 
    5840    669759.91     100.0316   -758.99097    93.080816    84.629559    85.023091    758.99097  0.022058459 
    5860    669756.11    99.842593   -755.49124    93.102503    84.617679    85.014738    755.49124   0.02229659 
    5880    669731.72    100.13369    -848.6931     93.12419    84.564927    85.044862     848.6931  0.022534721 
    5900    670191.89    100.18367   -779.00949    93.145877    84.563753    85.084663    779.00949  0.022772852 
    5920    670774.13    99.977161   -1069.1102    93.167564    84.609071    85.093156    1069.1102  0.023010983 
    5940    670817.69     100.0195   -464.08582    93.189251    84.637291    85.050512    464.08582  0.023249114 
    5960    671535.46    100.07264   -638.43839    93.210938    84.672274    85.086536    638.43839  0.023487245 
    5980    671936.81    99.964629   -913.87283    93.232625    84.696798     85.09294    913.87283  0.023725376 
    6000    672035.63    99.628121   -606.51259    93.254312    84.697207    85.085251    606.51259  0.023963507 
    6020    671763.05    99.718729   -605.98865    93.275999    84.674515    85.053753    605.98865  0.024201638 
    6040    671994.17    99.661231   -490.59416    93.297686    84.667687    85.070099    490.59416  0.024439769 
    6060       672025    99.748466   -785.64839    93.319374    84.662654    85.059286    785.64839    0.0246779 
    6080    671477.99    99.463467   -496.28714    93.341061    84.631661    85.001421    496.28714  0.024916031 
    6100    671527.21     99.67579   -675.42348    93.362748    84.646488    84.973018    675.42348  0.025154162 
    6120    671635.34    99.811595   -729.27517    93.384435     84.62757    84.985958    729.27517  0.025392293 
    6140    671440.65    99.303205   -584.49867    93.406122    84.559025    85.010452    584.49867  0.025630424 
    6160    671459.81    99.574858   -778.78784    93.427809    84.567269    84.984858    778.78784  0.025868555 
    6180    671263.09    100.05118   -718.97805    93.449496    84.561871    84.945664    718.97805  0.026106686 
    6200    671560.32    100.08929   -904.20176    93.471183    84.539532    84.986012    904.20176  0.026344817 
    6220    671746.94     100.3128   -664.12716     93.49287    84.542124    84.987303    664.12716  0.026582949 
    6240    671657.31    100.07367   -666.77176    93.514557    84.538061     84.96034    666.77176   0.02682108 
    6260    672089.26    100.43059   -629.73441    93.536244        84.58    84.953124    629.73441  0.027059211 
    6280    672390.56     100.4792   -845.91155    93.557931    84.585755    84.965725    845.91155  0.027297342 
    6300    672612.93    99.955808   -1015.9923    93.579618    84.592743    84.967108    1015.9923  0.027535473 
    6320    672684.76    99.847855   -634.83287    93.601305    84.587287    84.961973    634.83287  0.027773604 
    6340    673129.41    100.00646    -1059.794    93.622992    84.608351    84.977278     1059.794  0.028011735 
    6360    673254.74    100.46772   -923.15411    93.644679    84.608319    84.973449    923.15411  0.028249866 
    6380    673362.56    100.21335   -721.35393    93.666366    84.640334    84.935241    721.35393  0.028487997 
    6400    672969.47    100.30876   -510.03668    93.688053    84.590808    84.915696    510.03668  0.028726128 
    6420     673315.4    100.35249   -584.19634     93.70974    84.580886    84.949647    584.19634  0.028964259 
    6440    673609.02    100.47676   -745.75316    93.731427    84.608225    84.939574    745.75316   0.02920239 
    6460    673173.32    100.23232    -598.3861    93.753114    84.583168     84.89014     598.3861  0.029440521 
    6480    673395.23    100.34265    -928.8647    93.774802    84.599009    84.882586     928.8647  0.029678652 
    6500    673307.94     100.1648   -840.88577    93.796489    84.584372    84.866643    840.88577  0.029916783 
    6520    673254.63    99.892134   -698.88996    93.818176     84.57419    84.850522    698.88996  0.030154914 
    6540    673388.79    99.959188   -923.01194    93.839863    84.570666    84.851352    923.01194  0.030393045 
    6560     674064.9    100.10032   -1200.7885     93.86155    84.611633    84.875806    1200.7885  0.030631176 
    6580    674195.74    100.10711   -1067.6483    93.883237    84.617007    84.867281    1067.6483  0.030869307 
    6600    673938.16    100.31099   -851.79471    93.904924    84.604623    84.827681    851.79471  0.031107438 
    6620    674299.05    100.13245   -1020.2756    93.926611    84.623684    84.834395    1020.2756  0.031345569 
    6640    674125.72    99.898189   -816.11326    93.948298    84.585327    84.831461    816.11326  0.031583701 
    6660    673826.83    99.826212   -741.76062    93.969985    84.565383    84.794273    741.76062  0.031821832 
    6680    673723.03    100.25452   -538.16006    93.991672    84.550082    84.776989    538.16006  0.032059963 
    6700    673756.94    100.07581   -537.21247    94.013359    84.565885    84.745859    537.21247  0.032298094 
    6720    673817.92    100.00019   -768.27126    94.035046    84.524553    84.775417    768.27126  0.032536225 
    6740    673587.73    99.975769   -604.08236    94.056733    84.509502    84.742004    604.08236  0.032774356 
    6760    673376.61    100.30086   -906.32822     94.07842     84.48122     84.72427    906.32822  0.033012487 
    6780    673104.02    99.690797     -789.312    94.100107    84.467993    84.683712      789.312  0.033250618 
    6800    673476.96    99.264033   -1066.7648    94.121794    84.487665    84.691386    1066.7648  0.033488749 
    6820    673851.38     99.49811   -1031.2349    94.143481    84.516345    84.690201    1031.2349   0.03372688 
    6840    673946.86    100.11772   -918.79651    94.165168    84.498539    84.700537    918.79651  0.033965011 
    6860    674098.85     100.1102   -927.94222    94.186855    84.496051    84.702627    927.94222  0.034203142 
    6880    674311.38    100.42289   -662.13711    94.208543    84.515582    84.690251    662.13711  0.034441273 
    6900    674664.99    99.951574   -778.00291     94.23023    84.521435    84.709295    778.00291  0.034679404 
    6920    674546.07    100.23892   -366.56265    94.251917    84.506944    84.689395    366.56265  0.034917535 
    6940    674719.84    100.01543   -589.74016    94.273604    84.501751    84.696928    589.74016  0.035155666 
    6960     674686.7    100.13294   -592.36601    94.295291    84.466536    84.708592    592.36601  0.035393797 
    6980    674511.14    99.661838   -687.61585    94.316978    84.403145    84.730666    687.61585  0.035631928 
    7000    674830.09    99.503967   -639.79411    94.338665    84.407333     84.74704    639.79411  0.035870059 
    7020    674762.27    98.878515   -832.46601    94.360352    84.403028    84.723368    832.46601   0.03610819 
    7040    674654.65    99.653534   -1062.0583    94.382039    84.370488    84.723053    1062.0583  0.036346321 
    7060    674717.12    99.874013   -777.63172    94.403726    84.346572    84.735453    777.63172  0.036584453 
    7080    675517.23    99.473138   -973.58237    94.425413    84.373759    84.789122    973.58237  0.036822584 
    7100    675712.42    99.782627   -933.64383      94.4471    84.399173    84.768614    933.64383  0.037060715 
    7120    675503.41    99.487201   -877.72225    94.468787    84.369399    84.752837    877.72225  0.037298846 
    7140    675693.28    100.16094   -804.52329    94.490474    84.370079    84.756519    804.52329  0.037536977 
    7160    675827.93     100.2048   -630.82554    94.512161    84.375148    84.748865    630.82554  0.037775108 
    7180    676001.07    100.13231   -717.84963    94.533848    84.374286    84.751996    717.84963  0.038013239 
    7200    676180.57    100.12877   -567.43358    94.555535    84.368811    84.760557    567.43358   0.03825137 
    7220    676258.78    100.27206   -761.51214    94.577222    84.383969    84.735699    761.51214  0.038489501 
    7240     676235.3    99.949645   -574.83101    94.598909    84.408882    84.688328    574.83101  0.038727632 
    7260    676146.26    100.37025   -766.13244    94.620596     84.37952    84.687229    766.13244  0.038965763 
    7280    676035.83    100.47968   -749.45669    94.642284    84.402729    84.630715    749.45669  0.039203894 
    7300    676009.19    100.48585   -808.52917    94.663971    84.413672    84.597024    808.52917  0.039442025 
    7320    676258.78    100.31201   -1192.7044    94.685658    84.425692     84.59683    1192.7044  0.039680156 
    7340    676026.52     100.5326   -932.73524    94.707345     84.34689    84.627399    932.73524  0.039918287 
    7360    676290.28    100.62941   -1190.4689    94.729032    84.350696    84.637217    1190.4689  0.040156418 
    7380    676423.88    100.22036   -1084.9299    94.750719    84.324785    84.660567    1084.9299  0.040394549 
    7400     676438.8    100.28066   -1040.6806    94.772406    84.308254    84.659657    1040.6806   0.04063268 
    7420    676394.19    100.12613   -952.16767    94.794093    84.289144    84.653896    952.16767  0.040870811 
    7440    676498.85    100.17479   -669.96995     94.81578    84.330045    84.606574    669.96995  0.041108942 
    7460    676340.53    99.580523   -912.59679    94.837467    84.303564    84.593994    912.59679  0.041347074 
    7480     675910.6    99.413178   -399.91067    94.859154    84.225095    84.599638    399.91067  0.041585205 
    7500    676194.62    99.932469   -697.15472    94.880841    84.209981    84.631028    697.15472  0.041823336 
    7520    676416.46    99.574686   -691.01601    94.902528    84.216519    84.632876    691.01601  0.042061467 
    7540    676304.17    99.783404   -498.22465    94.924215    84.212559    84.603472    498.22465  0.042299598 
    7560    676111.38    100.09149   -642.79907    94.945902    84.165822    84.606992    642.79907  0.042537729 
    7580    676642.41    100.31727    -814.6883    94.967589     84.16075    84.659209     814.6883   0.04277586 
    7600    676793.17    100.20919   -1089.4579    94.989276    84.140647    84.678965    1089.4579  0.043013991 
    7620    677094.52    99.712524   -765.15828    95.010963     84.18359    84.654127    765.15828  0.043252122 
    7640     677392.3    99.897648    -1267.037     95.03265    84.240777     84.61455     1267.037  0.043490253 
    7660    677555.28    100.10911   -1266.3388    95.054337    84.223464    84.632992    1266.3388  0.043728384 
    7680    677691.78    100.03412   -999.22981    95.076025    84.208949    84.645322    999.22981  0.043966515 
    7700    677778.63    99.812171   -927.48105    95.097712    84.190838    84.655071    927.48105  0.044204646 
    7720    677841.74    100.10854   -703.10647    95.119399      84.1961     84.63836    703.10647  0.044442777 
    7740     677723.8    99.972518   -668.80747    95.141086    84.222155    84.578171    668.80747  0.044680908 
    7760    677431.61    99.945894   -289.55349    95.162773    84.223625    84.520965    289.55349  0.044919039 
    7780    678110.59    100.55159   -480.43744     95.18446    84.256742    84.553154    480.43744   0.04515717 
    7800    678301.91    100.42926   -549.27935    95.206147    84.232097    84.582485    549.27935  0.045395301 
    7820     678281.8    100.51076   -587.82604    95.227834    84.206159    84.586762    587.82604  0.045633432 
    7840    678133.64    100.33114    -686.7379    95.249521    84.206377    84.548811     686.7379  0.045871563 
    7860    678348.26    100.61395   -697.78922    95.271208    84.229852    84.532752    697.78922  0.046109694 
    7880     678538.1    100.96187   -907.85684    95.292895    84.220611    84.546441    907.85684  0.046347826 
    7900    678394.32    100.91665   -1083.5522    95.314582    84.200814    84.529162    1083.5522  0.046585957 
    7920    678329.37    100.56949   -1019.3469    95.336269    84.191393    84.511298    1019.3469  0.046824088 
    7940    678689.07    100.42027   -1014.0542    95.357956    84.233941    84.494181    1014.0542  0.047062219 
    7960    679226.89    100.58925   -1059.8221    95.379643    84.286374    84.489318    1059.8221   0.04730035 
    7980    678825.32    100.30587   -832.94678     95.40133    84.248318    84.458306    832.94678  0.047538481 
    8000    678724.56    100.42463   -596.08725    95.423017    84.223466    84.451489    596.08725  0.047776612 
    8020    679068.71    100.44722   -800.25446    95.444704    84.220981    84.477604    800.25446  0.048014743 
    8040     678934.4    100.63024   -679.89219    95.466391     84.19146    84.471317    679.89219  0.048252874 
    8060    679313.58    100.43262   -550.38361    95.488078    84.202066    84.488655    550.38361  0.048491005 
    8080    679358.11    99.973466   -641.80325    95.509765    84.223579     84.45343    641.80325  0.048729136 
    8100    679430.86    99.939155   -883.21755    95.531453    84.230673    84.436188    883.21755  0.048967267 
    8120    679523.52    99.981567   -879.15744     95.55314    84.239929     84.41926    879.15744  0.049205398 
    8140    679571.83    100.27315   -951.64995    95.574827    84.221042    84.425033    951.64995  0.049443529 
    8160    679767.51    100.31977    -1030.705    95.596514    84.200489    84.450794     1030.705   0.04968166 
    8180    679507.11     99.72433   -1058.7532    95.618201    84.170061    84.429807    1058.7532  0.049919791 
    8200    679880.13    99.843248   -1060.7261    95.639888    84.215783    84.411147    1060.7261  0.050157922 
    8220    679936.79     100.0653   -874.91117    95.661575    84.228998    84.385802    874.91117  0.050396053 
    8240     680239.4    99.833419    -1034.696    95.683262    84.218623    84.414621     1034.696  0.050634184 
    8260    680427.54    100.04869   -1014.6645    95.704949    84.182171    84.455388    1014.6645  0.050872315 
    8280    680546.24    99.778743   -482.71604    95.726636    84.172687    84.460501    482.71604  0.051110446 
    8300    680575.46    99.953304   -626.47699    95.748323    84.165884    84.451821    626.47699  0.051348578 
    8320    680465.83    100.11536   -600.56807     95.77001    84.154673    84.430343    600.56807  0.051586709 
    8340    681182.66    99.758976    -716.7623    95.791697    84.167449    84.487323     716.7623   0.05182484 
    8360    681428.33    99.976983   -638.78303    95.813384    84.151991    84.514186    638.78303  0.052062971 
    8380    681669.43    99.464319   -1051.4631    95.835071    84.145071    84.531908    1051.4631  0.052301102 
    8400    681518.22    99.827586   -885.76999    95.856758    84.146861    84.492239    885.76999  0.052539233 
    8420    681639.84    100.18642   -886.07687    95.878445     84.16981    84.465166    886.07687  0.052777364 
    8440    681873.92    99.438417   -1147.7551    95.900132    84.195994    84.448793    1147.7551  0.053015495 
    8460    681972.21    100.18368   -956.25639    95.921819    84.205568    84.432269    956.25639  0.053253626 
    8480    681768.01    99.825777   -1067.7518    95.943506    84.186441    84.407081    1067.7518  0.053491757 
    8500    681638.04    99.962161   -860.80958    95.965194      84.1835    84.374867    860.80958  0.053729888 
    8520    681574.25    100.13671   -1085.0511    95.986881    84.185435     84.34597    1085.0511  0.053968019 
    8540    681417.68    99.883257   -574.44743    96.008568     84.17328     84.31972    574.44743   0.05420615 
    8560    681606.88    100.41675   -623.72205    96.030255    84.131862    84.365597    623.72205  0.054444281 
    8580    681640.26    100.12912    -660.6409    96.051942     84.10056    84.382074     660.6409  0.054682412 
    8600    681044.71    100.47356    -230.6034    96.073629    84.034322    84.355756     230.6034  0.054920543 
    8620    681556.45    100.48057   -589.68951    96.095316    84.082361     84.35187    589.68951  0.055158674 
    8640    681628.63    100.57566   -648.10957    96.117003    84.063272    84.360921    648.10957  0.055396805 
    8660    681426.58    101.04836   -810.93317     96.13869    84.052565    84.327631    810.93317  0.055634936 
    8680    681572.55    100.53321   -815.74429    96.160377    84.068147    84.311042    815.74429  0.055873067 
    8700    681518.27     100.5141   -1132.3477    96.182064    84.033949    84.319619    1132.3477  0.056111198 
    8720    681491.99     100.4966   -1138.1744    96.203751    83.996927    84.334515    1138.1744   0.05634933 
    8740    681495.26    100.15969   -885.31977    96.225438    83.973912    84.339022    885.31977  0.056587461 
    8760    681930.84    100.37519   -1233.8748    96.247125    83.999768     84.34794    1233.8748  0.056825592 
    8780    681910.45    100.00158   -869.45851    96.268812    83.956516    84.369858    869.45851  0.057063723 
    8800    681896.14    100.00712   -765.87812    96.290499    83.962403    84.343173    765.87812  0.057301854 
    8820    682104.16    100.02604   -814.89707    96.312186    83.956751    84.355584    814.89707  0.057539985 
    8840    682184.21    99.989412   -702.87212    96.333873    83.941083    84.362234    702.87212  0.057778116 
    8860    682059.99    100.20421   -828.35365     96.35556    83.895213    84.373995    828.35365  0.058016247 
    8880     681872.8    100.41331   -483.33115    96.377247    83.902751    84.324281    483.33115  0.058254378 
    8900    682277.46    99.862937   -702.38741    96.398935    83.925503    84.332473    702.38741  0.058492509 
    8920    682100.81    99.814441   -755.44609    96.420622    83.919033    84.298174    755.44609   0.05873064 
    8940    682331.26    100.25415   -879.03185    96.442309    83.915021    84.311723    879.03185  0.058968771 
    8960    682812.66    100.10608   -1026.0649    96.463996    83.915444    84.351813    1026.0649  0.059206902 
    8980    683137.48    99.831445   -1143.4087    96.485683    83.911962    84.376472    1143.4087  0.059445033 
    9000     683016.3    99.966717     -1190.15     96.50737    83.895214    84.359384      1190.15  0.059683164 
    9020     682973.6    100.43182   -869.83803    96.529057    83.892985    84.337399    869.83803  0.059921295 
    9040    683345.94    100.25456   -1155.7779    96.550744    83.916954    84.340327    1155.7779  0.060159426 
    9060    683099.81    100.13543   -834.09073    96.572431    83.869959    84.338248    834.09073  0.060397557 
    9080    683451.72    99.607522   -715.98489    96.594118    83.864902    84.367838    715.98489  0.060635688 
    9100    683795.17    99.623997   -607.70243    96.615805    83.860783    84.395431    607.70243  0.060873819 
    9120     683764.9     99.88451   -677.17336    96.637492    83.853606    84.379978    677.17336  0.061111951 
    9140    683952.06    99.871445   -699.25634    96.659179    83.873184     84.36444    699.25634  0.061350082 
    9160    684207.94    99.735493    -488.4416    96.680866     83.93801    84.311907     488.4416  0.061588213 
    9180    684374.84    99.961531   -837.05981    96.702553    83.934348    84.317239    837.05981  0.061826344 
    9200    684494.69    99.913157   -748.96528     96.72424    83.945192    84.302204    748.96528  0.062064475 
    9220    684647.08    99.684495   -969.49818    96.745927    83.970701    84.276461    969.49818  0.062302606 
    9240    684834.84    100.11761   -1051.1684    96.767614    84.007661      84.2436    1051.1684  0.062540737 
    9260    684949.65    99.602462   -1203.1782    96.789301    83.998466    84.248065    1203.1782  0.062778868 
    9280    684874.38    99.466126   -1311.0348    96.810988    83.970948    84.247537    1311.0348  0.063016999 
    9300    685031.87    99.825269   -1170.7694    96.832676    83.967932    84.251062    1170.7694   0.06325513 
    9320    685073.91     100.0209   -1168.1331    96.854363    83.955139    84.250203    1168.1331  0.063493261 
    9340    684560.46    99.637441   -631.17731     96.87605    83.922236    84.201211    631.17731  0.063731392 
    9360    684631.67    99.234234   -558.86016    96.897737    83.935654    84.177665    558.86016  0.063969523 
    9380    684916.16    99.555175    -578.8935    96.919424    83.958984    84.170404     578.8935  0.064207654 
    9400    684759.81    99.738765   -308.35006    96.941111    83.934482    84.156924    308.35006  0.064445785 
    9420    684687.98    100.35936   -533.92528    96.962798    83.920156    84.143638    533.92528  0.064683916 
    9440    684683.04    99.696115   -651.93632    96.984485    83.909479    84.134919    651.93632  0.064922047 
    9460    684435.52    99.920577   -724.59991    97.006172    83.902661    84.092533    724.59991  0.065160178 
    9480    684557.23    99.835568   -779.71807    97.027859    83.905526    84.085817    779.71807  0.065398309 
    9500    685150.58    100.20634   -1123.1314    97.049546    83.943897    84.101433    1123.1314   0.06563644 
    9520    684753.55    100.53182   -781.92281    97.071233    83.897922    84.079968    781.92281  0.065874571 
    9540     684617.1     100.3714   -942.11427     97.09292    83.870655    84.071762    942.11427  0.066112703 
    9560    685071.65    100.62179   -1189.4784    97.114607    83.893138    84.086253    1189.4784  0.066350834 
    9580    685484.76    100.50082   -1068.7101    97.136294    83.897009    84.114293    1068.7101  0.066588965 
    9600    685575.92    100.68325   -900.04847    97.157981    83.858963    84.144858    900.04847  0.066827096 
    9620    685366.25    100.66039   -767.83647    97.179668    83.840461    84.118911    767.83647  0.067065227 
    9640    685379.18    100.60872    -825.9108    97.201355    83.837818    84.104381     825.9108  0.067303358 
    9660    685315.63    100.14852   -491.95806    97.223042     83.83166       84.084    491.95806  0.067541489 
    9680    685732.62    100.51647   -673.94187    97.244729    83.818294    84.129812    673.94187   0.06777962 
    9700    686166.87    100.26051   -723.89423    97.266416     83.84719    84.135314    723.89423  0.068017751 
    9720    686093.49      100.143   -769.32474    97.288104    83.818904    84.135946    769.32474  0.068255882 
    9740    686754.62    100.07994   -1008.5457    97.309791    83.847824    84.169211    1008.5457  0.068494013 
    9760     686889.3     99.83702   -988.58995    97.331478    83.830266    84.184588    988.58995  0.068732144 
    9780    687211.95     100.1712   -1194.8589    97.353165    83.817904    84.217789    1194.8589  0.068970275 
    9800    687579.06    99.882686   -909.21586    97.374852    83.794588    84.267453    909.21586  0.069208406 
    9820    687513.39    99.766318   -1005.6599    97.396539     83.78995    84.245305    1005.6599  0.069446537 
    9840    687284.82     100.3316     -1037.26    97.418226    83.792942    84.195542      1037.26  0.069684668 
    9860    687307.58     99.88375   -754.10944    97.439913    83.780502    84.192089    754.10944  0.069922799 
    9880    687567.95    99.764224   -902.15898      97.4616    83.770749    84.215047    902.15898   0.07016093 
    9900    687616.33    100.08702   -866.39532    97.483287    83.784365    84.188551    866.39532  0.070399061 
    9920    687641.43    99.557597   -786.22193    97.504974    83.807271    84.149892    786.22193  0.070637192 
    9940    687402.58    100.17069   -436.80588    97.526661    83.772616    84.136748    436.80588  0.070875323 
    9960    687734.92    99.982274   -751.28248    97.548348    83.793558    84.137678    751.28248  0.071113455 
    9980    688046.45    100.10481   -870.23467    97.570035    83.800964    84.149644    870.23467  0.071351586 
   10000    687945.27    100.42293   -716.67591    97.591722     83.79387    84.125693    716.67591  0.071589717 
   10020     688510.2    99.887729   -1013.7195    97.613409    83.805772    84.164116    1013.7195  0.071827848 
   10040    688472.81    100.11033   -1184.9997    97.635096    83.833806    84.112714    1184.9997  0.072065979 
   10060     688290.8    99.831229   -1398.8891    97.656783    83.817563    84.088096    1398.8891   0.07230411 
   10080    688392.72    99.787098    -1067.841     97.67847    83.787126    84.112419     1067.841  0.072542241 
   10100    688742.15    99.960088   -1237.1631    97.700157    83.803027     84.12047    1237.1631  0.072780372 
   10120    688883.74    99.335648   -974.49576    97.721845     83.81715    84.104918    974.49576  0.073018503 
   10140    688786.39    99.319508   -804.31924    97.743532    83.777754     84.11391    804.31924  0.073256634 
   10160    688526.07    99.836188    -685.5741    97.765219    83.736279    84.105104     685.5741  0.073494765 
   10180     688414.4    100.01158   -237.91206    97.786906    83.739275    84.069806    237.91206  0.073732896 
   10200    688775.36    99.409718   -826.70246    97.808593    83.741125    84.093379    826.70246  0.073971027 
   10220    688736.51    99.902149   -504.89279     97.83028    83.767843    84.043181    504.89279  0.074209158 
   10240    688392.59    99.455304   -549.94593    97.851967    83.762501    83.987952    549.94593  0.074447289 
   10260     688485.6    99.715629   -817.56598    97.873654    83.790357    83.952768    817.56598   0.07468542 
   10280    688464.39    99.596119    -761.8145    97.895341    83.745616    83.976424     761.8145  0.074923551 
   10300    688411.63    99.756432   -777.46999    97.917028    83.735217    83.961817    777.46999  0.075161682 
   10320     688819.6    99.636453   -822.31842    97.938715    83.751438    83.976703    822.31842  0.075399813 
   10340    689205.09    99.958586   -1278.9801    97.960402    83.777877    83.978588    1278.9801  0.075637944 
   10360    689145.86    99.882889   -952.24064    97.982089    83.730581    84.000207    952.24064  0.075876075 
   10380    689519.55    100.48722   -1022.2403    98.003776    83.733453    84.024275    1022.2403  0.076114207 
   10400    689909.53    100.19876   -934.42384    98.025463    83.729854     84.05681    934.42384  0.076352338 
   10420    689979.36    100.22783   -848.67047     98.04715    83.703944    84.072739    848.67047  0.076590469 
   10440    690015.64    100.26888   -843.53517    98.068837    83.713414    84.049059    843.53517    0.0768286 
   10460    689832.38    99.957557   -443.72103    98.090524    83.720673    84.000875    443.72103  0.077066731 
   10480    689955.24    100.72164   -699.24989    98.112211    83.758745    83.959083    699.24989  0.077304862 
   10500    690097.32    100.02767   -618.27891    98.133898    83.748296     83.96829    618.27891  0.077542993 
   10520    690108.02    100.13104   -609.67754    98.155586    83.747032    83.952307    609.67754  0.077781124 
   10540    689769.21    100.63453    -742.7651    98.177273    83.684024    83.955719     742.7651  0.078019255 
   10560    690050.22    100.05283   -788.21613     98.19896    83.702073    83.953266    788.21613  0.078257386 
   10580    690123.11    100.06815   -1049.1403    98.220647    83.709748    83.935899    1049.1403  0.078495517 
   10600    690093.41    100.03362   -673.37523    98.242334    83.721732    83.901748    673.37523  0.078733648 
   10620    690046.35    100.44671   -1061.6445    98.264021    83.696025    83.903273    1061.6445  0.078971779 
   10640    689989.15    100.04962   -1021.7892    98.285708    83.644157    83.929818    1021.7892   0.07920991 
   10660    689707.02    100.16578   -853.12835    98.307395    83.604994    83.916283    853.12835  0.079448041 
   10680    689617.08    100.33545   -982.37101    98.329082     83.61762    83.874168    982.37101  0.079686172 
   10700    690162.06    100.38887    -982.4788    98.350769    83.652019    83.887431     982.4788  0.079924303 
   10720    690217.62    100.50288   -815.10875    98.372456    83.625436    83.902352    815.10875  0.080162434 
   10740    690551.21    100.01122   -672.67882    98.394143     83.62525    83.924587    672.67882  0.080400565 
   10760    690949.49    100.09301   -839.60982     98.41583    83.623698    83.956045    839.60982  0.080638696 
   10780    690904.42    99.671666   -782.25519    98.437517    83.637015    83.918709    782.25519  0.080876827 
   10800    691168.74    99.670467   -809.45188    98.459204    83.647946    83.921355    809.45188  0.081114959 
   10820    691544.01    100.12485    -973.0987    98.480891    83.612001    83.984518     973.0987   0.08135309 
   10840     691719.7    100.41182    -943.4414    98.502578     83.57284    84.026715     943.4414  0.081591221 
   10860    691761.62    99.618204   -978.49245    98.524265    83.577186    84.008942    978.49245  0.081829352 
   10880    692071.35    99.994723   -989.50866    98.545952    83.592399    84.012767    989.50866  0.082067483 
   10900    692120.04    99.884203   -1025.0868    98.567639    83.557255    84.035522    1025.0868  0.082305614 
   10920    692372.71    100.16877   -918.39437    98.589327    83.569748    84.035144    918.39437  0.082543745 
   10940    692644.22    99.941294   -880.17664    98.611014    83.553294    84.066161    880.17664  0.082781876 
   10960       692071    100.24992   -687.17119    98.632701    83.473712    84.058183    687.17119  0.083020007 
   10980    691971.15    99.694443   -787.08582    98.654388     83.43566    84.065903    787.08582  0.083258138 
   11000    692249.18    99.943931   -972.35697    98.676075    83.461045    84.055622    972.35697  0.083496269 
   11020    692206.68    100.25685   -746.59424    98.697762    83.459368    84.033681    746.59424    0.0837344 
   11040    692026.77    100.26124   -626.95112    98.719449    83.459416    83.993337    626.95112  0.083972531 
   11060    692284.77    100.33185   -786.69977    98.741136    83.476392    83.989111    786.69977  0.084210662 
   11080     692614.3    99.744176   -883.68545    98.762823    83.498707    83.988187    883.68545  0.084448793 
   11100    691972.32    99.788951   -697.92138     98.78451    83.443749    83.947171    697.92138  0.084686924 
   11120    692516.04    99.772816   -1080.3295    98.806197    83.498742    83.939374    1080.3295  0.084925055 
   11140    693056.28    99.541943   -1102.2326    98.827884    83.531732    83.953252    1102.2326  0.085163186 
   11160    692681.72    99.538331    -1026.552    98.849571    83.484782    83.936647     1026.552  0.085401317 
   11180       692565    99.574847   -981.63193    98.871258    83.460703    83.928303    981.63193  0.085639448 
   11200    692763.07    100.14073   -935.20828    98.892945    83.471492    83.923046    935.20828   0.08587758 
   11220    692847.39    99.522885    -714.9721    98.914632    83.452063    83.934395     714.9721  0.086115711 
   11240    692676.54     99.29474    -594.7218    98.936319    83.402963    83.944694     594.7218  0.086353842 
   11260    693046.15    99.616194   -770.83153    98.958006    83.385833     83.98833    770.83153  0.086591973 
   11280    693059.15    99.691162   -402.25665    98.979693    83.380572    83.976802    402.25665  0.086830104 
   11300    692841.06    99.972222   -450.74714     99.00138    83.392477    83.920004    450.74714  0.087068235 
   11320    693281.97    99.666883   -780.13224    99.023067     83.40517    83.942241    780.13224  0.087306366 
   11340    692866.42    99.688426   -654.26736    99.044755    83.375396    83.903509    654.26736  0.087544497 
   11360    692897.02    99.968866   -679.57582    99.066442    83.381734    83.882469    679.57582  0.087782628 
   11380    692913.68    99.990324   -871.32397    99.088129    83.349742    83.898317    871.32397  0.088020759 
   11400    693285.82    100.46187   -1099.6192    99.109816    83.368523    83.906101    1099.6192   0.08825889 
   11420    693194.07    99.987214   -822.66622    99.131503    83.395565    83.849445    822.66622  0.088497021 
   11440    693318.61    99.778432   -1130.5124     99.15319    83.416462    83.825162    1130.5124  0.088735152 
   11460    693375.17    99.882762   -1220.8156    99.174877    83.384496    83.845799    1220.8156  0.088973283 
   11480    693146.89    99.864722   -915.64152    99.196564    83.375231    83.809182    915.64152  0.089211414 
   11500    693750.83    100.58193   -871.60421    99.218251     83.40978    83.829132    871.60421  0.089449545 
   11520    693614.25    100.38026   -819.18302    99.239938     83.42128    83.782763    819.18302  0.089687676 
   11540    693458.42    100.19155   -839.08747    99.261625    83.376951    83.790163    839.08747  0.089925807 
   11560     693406.6    100.54643   -497.37994    99.283312     83.38534    83.757174    497.37994  0.090163938 
   11580    693589.46    100.17341   -680.12572    99.304999     83.36494    83.781461    680.12572  0.090402069 
   11600    693608.09     100.3729   -857.27456    99.326686    83.379276    83.751016    857.27456    0.0906402 
   11620    693445.23    100.01525   -703.23775    99.348373     83.37155    83.720831    703.23775  0.090878332 
   11640    693693.62    100.23113   -995.51632     99.37006    83.360585    83.743555    995.51632  0.091116463 
   11660    693885.93    100.40464   -1018.2876    99.391747      83.3356    83.773602    1018.2876  0.091354594 
   11680    694121.48    100.04235   -1246.5043    99.413434    83.363792    83.755425    1246.5043  0.091592725 
   11700    694200.29    99.653994   -1117.9045    99.435121    83.389009     83.72134    1117.9045  0.091830856 
   11720    694163.57    99.883854   -990.32962    99.456808    83.376193    83.711523    990.32962  0.092068987 
   11740    694385.54    100.42399   -1204.3875    99.478496    83.374354    83.721881    1204.3875  0.092307118 
   11760    694125.85    100.05034   -843.22921    99.500183    83.341625    83.705188    843.22921  0.092545249 
   11780    694174.39    100.10776   -842.70342     99.52187    83.345668    83.688741    842.70342   0.09278338 
   11800       694662    100.32298   -501.53345    99.543557    83.346784    83.728159    501.53345  0.093021511 
   11820    694645.57    100.08017   -696.88809    99.565244    83.313331    83.741552    696.88809  0.093259642 
   11840    694457.79    100.27997   -755.15366    99.586931    83.282181    83.731991    755.15366  0.093497773 
   11860    694321.44    100.06944   -717.58608    99.608618    83.263779    83.715822    717.58608  0.093735904 
   11880    694745.21    99.955992   -837.67387    99.630305     83.26292    83.749547    837.67387  0.093974035 
   11900    694665.26    99.903965   -795.84777    99.651992    83.241592    83.743135    795.84777  0.094212166 
   11920    694709.72    99.794462   -1085.5855    99.673679    83.255082    83.716707    1085.5855  0.094450297 
   11940     695194.4    99.859247   -1020.7652    99.695366    83.291156    83.720614    1020.7652  0.094688428 
   11960    695586.98    100.09555   -1218.1412    99.717053    83.306065    83.734685    1218.1412  0.094926559 
   11980    695549.74    99.684244   -917.09753     99.73874    83.278266    83.739939    917.09753   0.09516469 
   12000    696130.64     100.1465   -1027.7146    99.760427    83.271316     83.79865    1027.7146  0.095402821 
   12020    696052.71    99.882221   -886.19928    99.782114    83.262681    83.779745    886.19928  0.095640952 
   12040    695823.66    100.19319   -592.09922    99.803801     83.24998    83.746751    592.09922  0.095879084 
   12060    695998.06    100.22559   -607.76891    99.825488      83.2609    83.738559    607.76891  0.096117215 
   12080    696357.21    99.622584   -668.91182    99.847175    83.276605    83.747776    668.91182  0.096355346 
   12100     696688.1    100.15165   -606.60241    99.868862    83.277376      83.7686    606.60241  0.096593477 
   12120    696419.42    100.01482   -486.83074    99.890549    83.221685    83.774138    486.83074  0.096831608 
   12140    696909.19    100.15047   -670.82479    99.912237    83.253907    83.782418    670.82479  0.097069739 
   12160    697407.64    99.990171   -907.65888    99.933924    83.291889    83.785921    907.65888   0.09730787 
   12180    697765.07    99.364616   -766.61557    99.955611    83.321779    83.780608    766.61557  0.097546001 
   12200    697939.42     99.76345   -940.53747    99.977298     83.29613    83.809165    940.53747  0.097784132 
   12220    698265.63    99.996174     -898.712    99.998985    83.302404    83.823837      898.712  0.098022263 
   12240    698329.94    99.825833   -1068.5271    100.02067    83.318151    83.797541    1068.5271  0.098260394 
   12260    698621.95    99.894491   -1107.5537    100.04236    83.313086    83.819504    1107.5537  0.098498525 
   12280       698678    99.855356   -830.47148    100.06405    83.291182      83.8301    830.47148  0.098736656 
   12300    698378.98    100.04756   -862.26674    100.08573    83.267421    83.799971    862.26674  0.098974787 
   12320    698222.79    100.00611   -690.17817    100.10742    83.272161    83.758312    690.17817  0.099212918 
   12340    698525.82     99.75329   -475.65689    100.12911     83.26911    83.779584    475.65689  0.099451049 
   12360    698726.64    100.01006    -621.0869    100.15079    83.253644    83.801087     621.0869   0.09968918 
   12380     699053.4    100.00696   -771.28469    100.17248    83.264302    83.811396    771.28469  0.099927311 
   12400    699217.86    99.564674   -558.72026    100.19417      83.2837    83.793447    558.72026   0.10016544 
   12420    699513.27    99.883414   -702.50506    100.21586      83.2804    83.814029    702.50506   0.10040357 
   12440    699453.52    99.921968   -854.03935    100.23754    83.301028    83.767989    854.03935    0.1006417 
   12460    699867.13    100.11974   -1062.0605    100.25923    83.344747    83.755435    1062.0605   0.10087984 
   12480    700120.03    100.33771   -917.86451    100.28092    83.348934    83.763374    917.86451   0.10111797 
   12500    699984.47     100.5158   -1246.6427     100.3026    83.328433    83.749647    1246.6427    0.1013561 
   12520    699770.27    100.21672   -1238.7644    100.32429    83.313162    83.721264    1238.7644   0.10159423 
   12540    699811.42    100.56394   -1017.6195    100.34598    83.325048    83.696151    1017.6195   0.10183236 
   12560    699769.19    100.78492   -806.81786    100.36766    83.319318    83.678772    806.81786   0.10207049 
   12580    699436.05    100.75972   -815.00985    100.38935    83.277909    83.662444    815.00985   0.10230862 
   12600    700124.65    100.59395   -895.85747    100.41104    83.304563    83.699935    895.85747   0.10254675 
   12620    700088.88    100.15055   -555.54537    100.43273    83.327257    83.654795    555.54537   0.10278488 
   12640    699582.65    100.19812   -538.24269    100.45441    83.299773    83.603834    538.24269   0.10302301 
   12660    699911.53    100.21261   -867.74325     100.4761    83.337051    83.587676    867.74325   0.10326115 
   12680    699853.33    100.25672   -659.98688    100.49779    83.299776    83.600082    659.98688   0.10349928 
   12700    699810.85    100.22772   -661.37797    100.51947    83.261548    83.615344    661.37797   0.10373741 
   12720    699970.51    99.929159   -811.57059    100.54116    83.252604    83.625365    811.57059   0.10397554 
   12740    700170.47    100.25043   -1050.0367    100.56285    83.259932    83.623853    1050.0367   0.10421367 
   12760    700127.14     99.91097   -889.51794    100.58454    83.212335    83.648468    889.51794    0.1044518 
   12780    700561.63    100.48653   -929.74921    100.60622    83.202706    83.692021    929.74921   0.10468993 
   12800    701356.41    100.36816   -1133.4424    100.62791    83.251522    83.719791    1133.4424   0.10492806 
   12820    700799.72    100.06253   -901.01445     100.6496    83.235206    83.651711    901.01445   0.10516619 
   12840    700570.38    100.00018   -748.68465    100.67128    83.195657    83.646064    748.68465   0.10540433 
   12860    701000.17    100.17527   -712.42249    100.69297    83.204105    83.670857    712.42249   0.10564246 
   12880    701100.94     99.97866   -580.97006    100.71466     83.19334    83.675692    580.97006   0.10588059 
   12900    701002.46    100.22474   -766.45944    100.73634    83.186637    83.652667    766.45944   0.10611872 
   12920    700932.28    100.20559    -757.1569    100.75803    83.175772    83.637213     757.1569   0.10635685 
   12940    700717.17     99.58382   -452.14514    100.77972    83.155892    83.613536    452.14514   0.10659498 
   12960    700669.07    100.36126   -698.40595    100.80141    83.122153    83.623738    698.40595   0.10683311 
   12980    701160.95    99.744953   -943.23721    100.82309     83.14914    83.637288    943.23721   0.10707124 
   13000    700923.32     99.81296   -831.78993    100.84478    83.160885    83.579157    831.78993   0.10730937 
   13020     700978.2    100.10992   -798.70033    100.86647     83.17576    83.552784    798.70033    0.1075475 
[...]
   76740    1222060.6    100.02808   -55.514085    169.96141    84.931433    84.659166    55.514085   0.86623302 
   76760    1222107.6    100.48473   -25.717708    169.98309    84.939765    84.643317    25.717708   0.86647116 
   76780    1222298.1    99.908724    10.144331    170.00478    84.944026     84.64146   -10.144331   0.86670929 
   76800      1223193    99.826412    2.5499344    170.02647    84.966511    84.670214   -2.5499344   0.86694742 
   76820      1223360    100.10251    -29.79521    170.04815    84.983181    84.654371     29.79521   0.86718555 
   76840    1223469.9    100.27895   -24.928873    170.06984    85.015897      84.6186    24.928873   0.86742368 
   76860    1223391.2    100.08755   -147.99855    170.09153    84.986634    84.631501    147.99855   0.86766181 
   76880    1223751.5    100.18183   -81.051936    170.11322    84.969266    84.662935    81.051936   0.86789994 
   76900    1224094.1    100.52538   -13.031091     170.1349    84.982909    84.662246    13.031091   0.86813807 
   76920    1223781.6    100.45561   -123.11864    170.15659    84.959038    84.653627    123.11864    0.8683762 
   76940    1223760.3     100.4757   -88.193615    170.17828    84.942764    84.657578    88.193615   0.86861433 
   76960    1223788.4    100.40442   -144.51564    170.19996    84.928471    84.662983    144.51564   0.86885247 
   76980    1223517.6    100.16356   -49.307072    170.22165    84.895133    84.666699    49.307072    0.8690906 
   77000      1223462    99.827799   -76.152796    170.24334    84.874932    84.672213    76.152796   0.86932873 
   77020    1223120.7    100.39313    -144.8488    170.26502    84.870233    84.642501     144.8488   0.86956686 
   77040    1222920.5    99.911515   -18.236379    170.28671    84.892947    84.595226    18.236379   0.86980499 
   77060      1223334    100.23444   -189.23636     170.3084    84.883624    84.622349    189.23636   0.87004312 
   77080    1223250.2    100.22323   -80.318529    170.33009    84.873617    84.615753    80.318529   0.87028125 
   77100    1223010.1    99.974481    19.678251    170.35177    84.875665     84.58633   -19.678251   0.87051938 
   77120    1222898.9    100.15954   -33.553618    170.37346    84.894808    84.548809    33.553618   0.87075751 
   77140    1222942.6    99.986223   -56.756132    170.39515     84.85911    84.576631    56.756132   0.87099565 
   77160    1223000.1    100.17651   -19.537605    170.41683    84.835361    84.593521    19.537605   0.87123378 
   77180    1223924.7    99.842216   -80.057127    170.43852    84.816959    84.665068    80.057127   0.87147191 
   77200    1224502.3    99.785493   -178.55074    170.46021    84.816011    84.695193    178.55074   0.87171004 
   77220    1224908.2    100.06016   -149.94141     170.4819    84.823635     84.70487    149.94141   0.87194817 
   77240    1225537.8    100.23259   -210.80316    170.50358    84.863232    84.698092    210.80316    0.8721863 
   77260    1225828.3    99.600662   -106.75498    170.52527    84.884305    84.686365    106.75498   0.87242443 
   77280    1226356.3    100.50491   -45.585577    170.54696    84.883805    84.712572    45.585577   0.87266256 
   77300    1226592.9    99.644283   -130.34489    170.56864    84.896761    84.705214    130.34489   0.87290069 
   77320    1226039.6    99.823967   -12.195858    170.59033      84.8919    84.661084    12.195858   0.87313882 
   77340    1225835.4    99.999189    4.3518133    170.61202    84.872341    84.655728   -4.3518133   0.87337696 
   77360    1225585.5    99.962395    -3.294535     170.6337    84.843501    84.656484     3.294535   0.87361509 
   77380    1225453.9    99.905821   -71.715259    170.65539    84.806092    84.673971    71.715259   0.87385322 
   77400    1225313.7    99.602925    36.640042    170.67708    84.771542    84.688025   -36.640042   0.87409135 
   77420    1224850.5    99.660445   -93.130275    170.69877    84.760451     84.65633    93.130275   0.87432948 
   77440    1224275.1    100.33053   -173.85508    170.72045    84.757547     84.60871    173.85508   0.87456761 
   77460    1224434.4    99.848292   -31.374163    170.74214    84.741496    84.624997    31.374163   0.87480574 
   77480    1224948.2    100.16304   -164.82959    170.76383    84.720154    84.671081    164.82959   0.87504387 
   77500    1224844.3    100.48538   -21.815174    170.78551    84.689317    84.683976    21.815174     0.875282 
   77520    1224864.2    100.49848   -52.253935     170.8072    84.685294    84.678617    52.253935   0.87552014 
   77540    1224828.1    100.48105   -45.800701    170.82889    84.668589    84.682079    45.800701   0.87575827 
   77560    1225561.1     100.6369     12.79936    170.85058    84.695038    84.695542    -12.79936    0.8759964 
   77580    1225633.2     100.9447    16.669358    170.87226     84.69971    84.685107   -16.669358   0.87623453 
   77600    1225950.4     100.6995    15.503363    170.89395    84.696125    84.699854   -15.503363   0.87647266 
   77620    1226009.8    100.36021   -23.673647    170.91564      84.7168    84.672542    23.673647   0.87671079 
   77640    1226772.6    100.63206    -122.7427    170.93732     84.75543    84.675861     122.7427   0.87694892 
   77660    1227637.8    100.24374   -196.73111    170.95901    84.782327    84.697958    196.73111   0.87718705 
   77680    1227310.3    100.30653   -209.26391     170.9807    84.757396    84.689524    209.26391   0.87742518 
   77700    1226789.2    100.32463   -135.05008    171.00238    84.763469    84.636767    135.05008   0.87766331 
   77720    1226952.4    100.44607   -87.343393    171.02407    84.738824    84.661908    87.343393   0.87790145 
   77740    1227379.9    100.37381   -117.72557    171.04576    84.724246    84.695238    117.72557   0.87813958 
   77760    1227528.4    100.29249   -3.1458664    171.06745    84.700647    84.718339    3.1458664   0.87837771 
   77780      1227897     100.0522    40.536227    171.08913    84.709149    84.724534   -40.536227   0.87861584 
   77800    1228384.5     100.1356   -23.362182    171.11082    84.721825    84.734748    23.362182   0.87885397 
   77820    1228273.7    100.31944   -8.5720571    171.13251    84.708859    84.729338    8.5720571    0.8790921 
   77840    1229174.8    100.02887   -47.857864    171.15419    84.753539    84.736056    47.857864   0.87933023 
   77860    1230152.4    100.19639    -47.89444    171.17588    84.788309    84.757935     47.89444   0.87956836 
   77880    1230224.7    99.796818   -168.88651    171.19757    84.792562    84.747932    168.88651   0.87980649 
   77900    1230087.4    100.19062   -72.303817    171.21925    84.808739    84.711577    72.303817   0.88004463 
   77920    1230189.6    99.765089   -29.190062    171.24094    84.802726    84.713892    29.190062   0.88028276 
   77940    1230298.2      99.7427   -213.46643    171.26263    84.772911    84.740435    213.46643   0.88052089 
   77960    1230080.7     100.1544   -10.355741    171.28432    84.775347    84.712294    10.355741   0.88075902 
   77980      1230952    99.907557   -149.73733      171.306    84.802083    84.734844    149.73733   0.88099715 
   78000    1231789.4    99.592091   -73.325658    171.32769    84.819275    84.764568    73.325658   0.88123528 
   78020    1231855.5    99.980804    1.1520479    171.34938    84.822139    84.755521   -1.1520479   0.88147341 
   78040    1232115.3    100.04249   -64.134998    171.37106      84.8321     84.75272    64.134998   0.88171154 
   78060    1232190.5    99.810366   -84.598924    171.39275    84.848522    84.730766    84.598924   0.88194967 
   78080    1232233.5    100.20454   -17.774541    171.41444    84.852576    84.718952    17.774541    0.8821878 
   78100    1231873.8    99.908555     28.33786    171.43613    84.841597     84.69447    -28.33786   0.88242594 
   78120    1232840.3    99.875937   -86.023337    171.45781    84.887977     84.70389    86.023337   0.88266407 
   78140    1232901.8    99.726029    -219.3638     171.4795    84.890087    84.695298     219.3638    0.8829022 
   78160    1232519.1    99.743071   -116.51056    171.50119     84.87647    84.671884    116.51056   0.88314033 
   78180    1232527.9    100.27161   -46.524815    171.52287    84.866662    84.671568    46.524815   0.88337846 
   78200    1233307.4    100.09446   -111.79233    171.54456    84.884558    84.696544    111.79233   0.88361659 
   78220    1234084.8    100.73143    10.754188    171.56625    84.920305    84.703549   -10.754188   0.88385472 
   78240    1234214.7    100.42966    20.728547    171.58793    84.929047    84.693039   -20.728547   0.88409285 
   78260    1234268.4    100.70191    1.1599519    171.60962     84.89814    84.716851   -1.1599519   0.88433098 
   78280    1234620.4    100.22651    41.093558    171.63131    84.900178    84.728269   -41.093558   0.88456911 
   78300    1235226.7    100.75412   -67.185275      171.653    84.941339    84.718098    67.185275   0.88480725 
   78320    1235597.7    100.48616   -11.576168    171.67468    84.961462    84.712764    11.576168   0.88504538 
   78340    1235543.3    100.18543   -107.43496    171.69637    84.963905      84.6959    107.43496   0.88528351 
   78360    1235517.4    100.32579   -253.97284    171.71806    84.959563    84.687757    253.97284   0.88552164 
   78380    1235455.2    100.14062    -188.2129    171.73974    84.982043    84.650405     188.2129   0.88575977 
   78400    1235607.5    100.38087   -154.62642    171.76143    85.003431    84.628847    154.62642    0.8859979 
   78420      1235623    99.870385   -135.11344    171.78312    85.006166    84.616505    135.11344   0.88623603 
   78440    1236062.2    99.876055   -136.93517    171.80481    85.031306    84.610872    136.93517   0.88647416 
   78460    1236083.4    100.23533   -46.332377    171.82649     85.01349    84.619371    46.332377   0.88671229 
   78480    1236164.4    100.19188    101.82527    171.84818    84.965517    84.662015   -101.82527   0.88695043 
   78500    1236181.1    99.964651    32.007192    171.86987    84.955965    84.661988   -32.007192   0.88718856 
   78520    1235779.7    99.830428    131.52465    171.89155    84.944216    84.635526   -131.52465   0.88742669 
   78540    1236317.1    100.36007   -4.6872064    171.91324      84.9457    84.660176    4.6872064   0.88766482 
   78560    1236283.6    99.771917   -68.671936    171.93493    84.931302    84.661549    68.671936   0.88790295 
   78580    1236504.2    100.27456   -120.16979    171.95661    84.903077    84.694125    120.16979   0.88814108 
   78600    1236488.9     99.93435   -129.68269     171.9783    84.893618    84.691833    129.68269   0.88837921 
   78620    1236155.5    99.421695   -284.80769    171.99999    84.878991     84.67291    284.80769   0.88861734 
   78640    1235833.1    100.03666   -247.74503    172.02168    84.877623    84.641517    247.74503   0.88885547 
   78660    1235509.8    100.13969   -49.187496    172.04336    84.838767    84.647462    49.187496    0.8890936 
   78680    1235573.3     99.83434   -160.20725    172.06505     84.85255    84.627391    160.20725   0.88933174 
   78700    1235577.5     100.0425   -53.790707    172.08674    84.872457    84.597165    53.790707   0.88956987 
   78720    1235401.2    99.492949   -37.766157    172.10842    84.887196     84.55975    37.766157     0.889808 
   78740    1235688.2    99.563414   -60.455853    172.13011    84.877857    84.578045    60.455853   0.89004613 
   78760    1235067.6    100.22711    14.008054     172.1518    84.826898    84.575693   -14.008054   0.89028426 
   78780    1235159.3    99.865683    42.148245    172.17349    84.812056    84.586121   -42.148245   0.89052239 
   78800    1235427.1     100.0726   -44.409914    172.19517     84.82182    84.584064    44.409914   0.89076052 
   78820    1236043.6    100.04964    -189.2325    172.21686    84.859454    84.578093     189.2325   0.89099865 
   78840    1236190.5    99.469548   -123.89192    172.23855    84.838664     84.59822    123.89192   0.89123678 
   78860    1236826.3    99.710766   -173.50825    172.26023    84.813569    84.656118    173.50825   0.89147492 
   78880    1236866.4    100.00001   -113.95991    172.28192    84.783368    84.678358    113.95991   0.89171305 
   78900      1236328    100.47212   -105.30851    172.30361    84.791283    84.622941    105.30851   0.89195118 
   78920    1236998.8    100.48017   -157.92758    172.32529    84.816154    84.633377    157.92758   0.89218931 
   78940    1236526.8    100.16039   -15.974582    172.34698    84.779906    84.626606    15.974582   0.89242744 
   78960    1235981.2    100.50113    91.698099    172.36867    84.734787    84.623655   -91.698099   0.89266557 
   78980    1236808.3     100.2645   -41.785697    172.39036    84.783848    84.620637    41.785697    0.8929037 
   79000    1236917.5    100.43536   -24.685126    172.41204    84.780342    84.620964    24.685126   0.89314183 
   79020    1236318.6    100.11086    69.482726    172.43373    84.755296    84.594347   -69.482726   0.89337996 
   79040    1237072.3     100.2594   -139.67932    172.45542    84.767443    84.623144    139.67932   0.89361809 
   79060    1237235.7    100.56959   -151.70448     172.4771    84.760934    84.630179    151.70448   0.89385623 
   79080    1237154.6    99.759104    6.9254692    172.49879     84.74065    84.634248   -6.9254692   0.89409436 
   79100    1238059.1    99.874015   -215.99757    172.52048    84.777462    84.648705    215.99757   0.89433249 
   79120      1238950    100.06379   -122.91583    172.54216    84.819922    84.656568    122.91583   0.89457062 
   79140    1238755.9    100.26465   -95.419119    172.56385    84.818743    84.633843    95.419119   0.89480875 
   79160    1239196.4    99.913746    -103.6954    172.58554    84.823789    84.648268     103.6954   0.89504688 
   79180    1239616.8    99.436894   -17.720956    172.60723    84.827021    84.663116    17.720956   0.89528501 
   79200    1240058.3    99.484881   -34.957019    172.62891    84.851389     84.65831    34.957019   0.89552314 
   79220    1240030.9    99.740876   -94.383562     172.6506    84.843096    84.654082    94.383562   0.89576127 
   79240    1239914.8     99.63465    8.6005675    172.67229    84.860443    84.618226   -8.6005675   0.89599941 
   79260    1240329.7    99.969252    19.454738    172.69397    84.878029    84.618374   -19.454738   0.89623754 
   79280    1241190.3    100.10067   -158.66675    172.71566    84.881134    84.663355    158.66675   0.89647567 
   79300    1241432.8    99.784101    4.2672614    172.73735     84.83924    84.711074   -4.2672614    0.8967138 
   79320    1241483.8    99.703612   -35.967358    172.75904    84.824286    84.718853    35.967358   0.89695193 
   79340      1241396    99.509937   -165.52085    172.78072    84.837668     84.68887    165.52085   0.89719006 
   79360    1241678.2    100.04142   -55.980515    172.80241    84.857187     84.67801    55.980515   0.89742819 
   79380    1241761.3    100.11049   -222.69665     172.8241    84.822075      84.7081    222.69665   0.89766632 
   79400    1241824.5    99.892369   -151.76673    172.84578    84.797054    84.726775    151.76673   0.89790445 
   79420    1241753.5    100.08357    11.362559    172.86747    84.803936    84.704428   -11.362559   0.89814258 
   79440      1242364    100.14623    -136.8061    172.88916    84.856067    84.683384     136.8061   0.89838072 
   79460    1242488.5    100.15584   -67.028625    172.91084    84.889191    84.648204    67.028625   0.89861885 
   79480    1241827.5     100.2584   -46.869181    172.93253    84.876002    84.605709    46.869181   0.89885698 
   79500    1242220.2    100.29399   -54.068603    172.95422    84.881914    84.615958    54.068603   0.89909511 
   79520      1242972    100.46671   -121.17887    172.97591    84.904554    84.633973    121.17887   0.89933324 
   79540      1243081    99.907496     11.57188    172.99759    84.911313    84.624051    -11.57188   0.89957137 
   79560    1243073.8    100.10509   -59.668098    173.01928    84.917822    84.606466    59.668098    0.8998095 
   79580    1242506.5     99.99561   -64.927415    173.04097    84.872124     84.60279    64.927415   0.90004763 
   79600    1242488.4    100.35742   -53.615711    173.06265    84.854209    84.608813    53.615711   0.90028576 
   79620    1243053.9    100.44987   -78.629051    173.08434     84.89717    84.593883    78.629051    0.9005239 
   79640    1243457.2     100.4655   -108.23815    173.10603    84.909237    84.598706    108.23815   0.90076203 
   79660    1243187.1    100.11135   -142.85696    173.12772    84.867028    84.611795    142.85696   0.90100016 
   79680    1242803.3    99.694193    -172.4308     173.1494    84.837804    84.604213     172.4308   0.90123829 
   79700      1242896    99.827775   -105.17713    173.17109    84.856804    84.580983    105.17713   0.90147642 
   79720    1243159.3    99.729231   -42.860255    173.19278    84.864795    84.580343    42.860255   0.90171455 
   79740    1243752.5    99.709623   -6.0512287    173.21446    84.857214    84.617668    6.0512287   0.90195268 
   79760    1243010.4    100.16433    65.713603    173.23615    84.820458     84.59323   -65.713603   0.90219081 
   79780    1243058.2     100.0179   -45.630131    173.25784    84.838191    84.568216    45.630131   0.90242894 
   79800    1244482.9     99.70212   -60.324965    173.27952    84.900663    84.592257    60.324965   0.90266707 
   79820      1244659    99.714506    -2.432345    173.30121    84.905094    84.589223     2.432345   0.90290521 
   79840    1244729.2    99.741534   -44.165448     173.3229     84.88538    84.603056    44.165448   0.90314334 
   79860    1245422.4    99.682536   -158.24433    173.34459    84.885921    84.639041    158.24433   0.90338147 
   79880    1246124.8     99.43744   -136.89675    173.36627    84.905123    84.657032    136.89675    0.9036196 
   79900    1245779.8    99.944765   -63.273049    173.38796    84.919821    84.608363    63.273049   0.90385773 
   79920      1246599    99.877568   -161.67084    173.40965    84.965708    84.607689    161.67084   0.90409586 
   79940      1247037    99.930329   -198.05666    173.43133    84.944335    84.648127    198.05666   0.90433399 
   79960    1246551.7    99.776681    60.383226    173.45302    84.941984     84.60695   -60.383226   0.90457212 
   79980    1246943.4     100.0567    2.6749039    173.47471    84.934834    84.630079   -2.6749039   0.90481025 
   80000    1247537.3    99.856128   -70.528179     173.4964    84.974083    84.620694    70.528179   0.90504839 
Loop time of 6150.25 on 64 procs for 80000 steps with 64040 atoms

Performance: 1.124 ns/day, 21.355 hours/ns, 13.008 timesteps/s
99.9% CPU use with 64 MPI tasks x 1 OpenMP threads

MPI task timing breakdown:
Section |  min time  |  avg time  |  max time  |%varavg| %total
---------------------------------------------------------------
Pair    | 367.9      | 1435.5     | 2424.4     |1715.7 | 23.34
Bond    | 28.492     | 100.05     | 150.02     | 386.1 |  1.63
Kspace  | 207.96     | 1241.9     | 2383.3     |1955.4 | 20.19
Neigh   | 3127.8     | 3157.4     | 3191.9     |  36.7 | 51.34
Comm    | 110.11     | 157.25     | 193.24     | 199.2 |  2.56
Output  | 2.6146     | 2.6456     | 2.7419     |   1.1 |  0.04
Modify  | 43.879     | 51.176     | 64.082     |  73.4 |  0.83
Other   |            | 4.333      |            |       |  0.07

Nlocal:        1000.62 ave        1945 max           0 min
Histogram: 14 1 2 2 11 10 5 3 0 16
Nghost:        9886.06 ave       18441 max         424 min
Histogram: 13 3 0 0 5 27 0 0 0 16
Neighs:       733086.0 ave 1.68487e+06 max           0 min
Histogram: 16 1 4 12 7 5 3 0 5 11

Total # of neighbors = 46917527
Ave neighs/atom = 732.62847
Ave special neighs/atom = 5.8719550
Neighbor list builds = 80000
Dangerous builds not checked
Total wall time: 1:42:34
