LAMMPS (29 Oct 2020)
OMP_NUM_THREADS environment is not set. Defaulting to 1 thread. (../comm.cpp:94)
  using 1 OpenMP thread(s) per MPI task
####################################################
#    This program is free software: you can redistribute it and/or modify
#    it under the terms of the GNU General Public License as published by
#    the Free Software Foundation, either version 3 of the License, or
#    (at your option) any later version.
#
#    This program is distributed in the hope that it will be useful,
#    but WITHOUT ANY WARRANTY; without even the implied warranty of
#    MERCHANTABILITY or FITNESS FOR A PARTICULAR PURPOSE.  See the
#    GNU General Public License for more details.


units		real        ## defines the units style used herein. More information: https://docs.lammps.org/units.html
atom_style	full        ## defines the atom style used herein. More information: https://docs.lammps.org/atom_style.html

# Styles
pair_style      lj/cut/coul/long 15.0 10.0      ## sets the formula(s) LAMMPS uses to compute pairwise interactions; here, lennard-jones (LJ) with long-range Coulomb interaction. More: https://docs.lammps.org/pair_lj_cut_coul.html
pair_modify     shift no                        ## the shift keyword determines whether a Lennard-Jones potential is shifted at its cutoff to 0.0. More: https://docs.lammps.org/pair_modify.html
kspace_style    pppm 1.0e-4                     ## defines a long-range solver for LAMMPS to compute long-range Coulombic interactions. Note: requires use of a matching pair style, i.e. PPPM with coul/long. More: https://docs.lammps.org/kspace_style.html
bond_style      harmonic                        ## defined based off the forcefield used to construct the system; models the atoms' interactions
angle_style     harmonic
dihedral_style  opls
improper_style  cvff
special_bonds   lj 0 0 1 coul 0 0 1

read_data       300K_PS.lmps      ## input lammps datafile, equilibriated until structure nears experimental properties
Reading data file ...
  orthogonal box = (55.882319 55.882319 55.882319) to (144.11768 144.11768 144.11768)
  4 by 4 by 4 MPI processor grid
  reading atoms ...
  64040 atoms
  reading velocities ...
  64040 velocities
  scanning bonds ...
  2 = max bonds/atom
  scanning angles ...
  6 = max angles/atom
  scanning dihedrals ...
  12 = max dihedrals/atom
  scanning impropers ...
  3 = max impropers/atom
  reading bonds ...
  68020 bonds
  reading angles ...
  119880 angles
  reading dihedrals ...
  191660 dihedrals
  reading impropers ...
  51880 impropers
Finding 1-2 1-3 1-4 neighbors ...
  special bond factors lj:    0.0      0.0      1.0     
  special bond factors coul:  0.0      0.0      1.0     
     4 = max # of 1-2 neighbors
     8 = max # of 1-3 neighbors
    12 = max # of special neighbors
  special bonds CPU = 1.898 seconds
  read_data CPU = 3.702 seconds

dielectric      1.0
neighbor    	1.0 bin
neigh_modify	delay 0 every 1 check no        ## this is to make sure that the neighbor list is updated every timestep, and the atoms don't get lost as the system is being deformed ##

timestep	    1.0                             ## unit = fs, per "real" unit style
run_style       verlet                          ## defines algorithm used for simulation computation; verlet integration is a numerical method used to integrate Newton's equations of motion.

variable stress equal press*-1                         ## computes stress as the negative of press values
variable engStrain equal (lx-91.07191)/91.07191      ## computes engineering strain; lx_0 must be found and inputted manually (for now)

thermo		    20                                                               ## output log data (headers in thermo_style), recorded at every timestep in numList.txt
thermo_style    custom step vol temp press lx ly lz v_stress v_engStrain         ## data headers of output log file. More: https://docs.lammps.org/thermo_style.html

################# Deformation ##################

fix 1 all npt temp 300 300 100 y 1 1 100.0 z 1 1 100.0      ## stress normal to the x direction can vary; external pressure (y and z) = 1atm ##

fix 2 all deform 1 x scale 2.0 remap x                      ## sets a uniaxial (x-direction) deformation in motion, scaling a set amount (here, 4.0x) the initial length


################# Dumping ##################

reset_timestep 0

dump dump2 all custom 4000 sim.lammpstrj id mol type q xs ys zs ix iy iz

restart 8000 PS.restart

run 		80000              ## this depends on the overall strain rate, where strain rate = deformScale / runTimeSteps (consider units!)
PPPM initialization ...
WARNING: System is not charge neutral, net charge = -8.9366436e-05 (../kspace.cpp:313)
  using 12-bit tables for long-range coulomb (../kspace.cpp:328)
  G vector (1/distance) = 0.20517083
  grid = 24 24 24
  stencil order = 5
  estimated absolute RMS force accuracy = 0.022734637
  estimated relative force accuracy = 6.8464684e-05
  using double precision FFTW3
  3d grid and FFT values/proc = 1331 216
Neighbor list info ...
  update every 1 steps, delay 0 steps, check no
  max neighbors/atom: 2000, page size: 100000
  master list distance cutoff = 16
  ghost atom cutoff = 16
  binsize = 8, bins = 12 12 12
  1 neighbor lists, perpetual/occasional/extra = 1 0 0
  (1) pair lj/cut/coul/long, perpetual
      attributes: half, newton on
      pair build: half/bin/newton
      stencil: half/bin/3d/newton
      bin: standard
Per MPI rank memory allocation (min/avg/max) = 18.47 | 18.74 | 18.89 Mbytes
Step Volume Temp Press Lx Ly Lz v_stress v_engStrain 
       0    686954.56     301.6084    15618.815    88.235362    88.235362    88.235362   -15618.815 -0.031146246 
      20    692434.08    309.99785    3255.7675    88.257421    88.545164    88.605842   -3255.7675 -0.030904033 
      40    697294.01    307.33167    294.28252     88.27948    88.845041    88.904343   -294.28252 -0.030661819 
      60    695465.58    306.34445   -105.26961    88.301538     88.70576    88.788261    105.26961 -0.030419606 
      80    693530.76    303.97495   -112.73486    88.323597    88.551872    88.672966    112.73486 -0.030177392 
     100    693510.86    306.03049   -391.93265    88.345656    88.533682    88.666494    391.93265 -0.029935179 
     120    690170.09    305.16315   -540.61131    88.367715    88.314791    88.435995    540.61131 -0.029692965 
     140    691057.87    304.63953   -180.27104    88.389774    88.320163    88.522268    180.27104 -0.029450752 
     160    692595.01    303.43222   -1079.1117    88.411833    88.415843    88.601051    1079.1117 -0.029208538 
     180    692888.33     302.9262   -560.21913    88.433891    88.410652    88.621667    560.21913 -0.028966325 
     200    692108.38    304.12011    640.20372     88.45595      88.3332    88.577433   -640.20372 -0.028724112 
     220    693160.95    302.04277   -427.33038    88.478009    88.383705    88.639346    427.33038 -0.028481898 
     240    694711.37    301.91158    112.55328    88.500068    88.507839    88.690901   -112.55328 -0.028239685 
     260    693673.38    301.55432   -90.318445    88.522127    88.399788    88.644535    90.318445 -0.027997471 
     280    694342.14    302.17823    251.63495    88.544186    88.452719    88.654808   -251.63495 -0.027755258 
     300    695546.14    300.19387    244.81495    88.566244    88.533921    88.704983   -244.81495 -0.027513044 
     320    695393.67    299.34009   -66.875881    88.588303    88.505968    88.691458    66.875881 -0.027270831 
     340     695391.6    298.61091    527.03603    88.610362    88.479009    88.696131   -527.03603 -0.027028618 
     360    696156.14    301.20379   -648.68358    88.632421    88.537077    88.713327    648.68358 -0.026786404 
     380    697075.43    301.31003   -81.076652     88.65448    88.594941    88.750369    81.076652 -0.026544191 
     400    696978.39    299.29994   -356.63289    88.676539    88.561359    88.749579    356.63289 -0.026301977 
     420    696809.57    299.68287   -808.81629    88.698598    88.513527    88.753953    808.81629 -0.026059764 
     440    696664.32     298.8678    192.80282    88.720656    88.496662    88.730296   -192.80282  -0.02581755 
     460    696931.95    297.91761   -152.84481    88.742715    88.480932    88.758094    152.84481 -0.025575337 
     480    696902.52    299.78428    174.06718    88.764774    88.461888    88.751393   -174.06718 -0.025333123 
     500    696592.81    299.44769    112.87118    88.786833    88.435602    88.716272   -112.87118  -0.02509091 
     520    696613.45    299.35967    339.47568    88.808892    88.449914    88.682513   -339.47568 -0.024848697 
     540    696397.58    298.39405    218.25674    88.830951    88.440659    88.642291   -218.25674 -0.024606483 
     560    696480.41    297.66062    -131.9628    88.853009    88.396045    88.675557     131.9628  -0.02436427 
     580    696430.68    299.87622   -141.06446    88.875068     88.33105    88.712446    141.06446 -0.024122056 
     600    695677.44    300.88563   -504.58097    88.897127    88.249318     88.67656    504.58097 -0.023879843 
     620    695699.41    299.39239   -542.70478    88.919186    88.209083      88.6978    542.70478 -0.023637629 
     640    695301.36    299.42494    119.68116    88.941245     88.13134    88.703244   -119.68116 -0.023395416 
     660    695731.18    300.86785    160.41036    88.963304    88.171021    88.696134   -160.41036 -0.023153202 
     680    695848.76    300.40073   -44.405345    88.985362    88.165297    88.694892    44.405345 -0.022910989 
     700    696079.42    300.83468    84.991072    89.007421    88.181561    88.685944   -84.991072 -0.022668776 
     720    696578.34     300.8668    157.75068     89.02948     88.23343    88.675361   -157.75068 -0.022426562 
     740    696470.44    300.83005   -129.48103    89.051539    88.282428    88.590468    129.48103 -0.022184349 
     760    696389.51    299.85072    2.4504764    89.073598    88.253366    88.587398   -2.4504764 -0.021942135 
     780    696199.09    299.50151   -8.6020306    89.095657    88.266009    88.528566    8.6020306 -0.021699922 
     800    696640.07      300.283   -310.49745    89.117716    88.278048    88.550637    310.49745 -0.021457708 
     820    697274.79     300.7192    -318.1073    89.139774    88.349624    88.537596     318.1073 -0.021215495 
     840    696733.16    300.13151   -271.74959    89.161833    88.299055    88.497589    271.74959 -0.020973282 
     860    697160.53    300.54582    206.99099    89.183892    88.263914    88.565216   -206.99099 -0.020731068 
     880    697466.12    300.05537   -579.91474    89.205951    88.311604    88.534292    579.91474 -0.020488855 
     900    697919.42    299.46608   -314.16615     89.22801    88.372987    88.508411    314.16615 -0.020246641 
     920    697997.81    300.67003   -367.03209    89.250069    88.344871    88.524638    367.03209 -0.020004428 
     940    697589.79     300.5295   -407.96018    89.272127    88.309918    88.486038    407.96018 -0.019762214 
     960    697632.38    299.79841    96.222222    89.294186     88.36667    88.412761   -96.222222 -0.019520001 
     980    697226.18    299.87609   -77.370256    89.316245    88.292888     88.41328    77.370256 -0.019277787 
    1000    697869.93    299.08527    112.83172    89.338304    88.365303    88.400559   -112.83172 -0.019035574 
    1020     698052.6    300.40561   -165.21351    89.360363     88.34486    88.422327    165.21351 -0.018793361 
    1040    698187.57    298.90592    3.8784365    89.382422    88.360723    88.401724   -3.8784365 -0.018551147 
    1060     698553.8    298.86833   -125.14872     89.40448    88.291741    88.495359    125.14872 -0.018308934 
    1080    698278.06    299.45332   -543.57892    89.426539    88.294006    88.436339    543.57892  -0.01806672 
    1100    698227.43    299.13923    167.15836    89.448598    88.283415    88.418725   -167.15836 -0.017824507 
    1120    698483.66    300.42565   -263.15734    89.470657    88.349243    88.363476    263.15734 -0.017582293 
    1140    698920.92    298.76158   -449.11871    89.492716    88.367948    88.378289    449.11871  -0.01734008 
    1160    699174.72    300.11414    77.738629    89.514775     88.39783    88.358715   -77.738629 -0.017097867 
    1180    698745.11    298.73465   -480.21479    89.536833    88.337198    88.343262    480.21479 -0.016855653 
    1200    699149.67    300.50964    280.23787    89.558892    88.355755    88.354079   -280.23787  -0.01661344 
    1220    699303.22    298.64528    128.86331    89.580951    88.359229    88.348248   -128.86331 -0.016371226 
    1240    699691.43    299.71069    234.13751     89.60301    88.358438    88.376322   -234.13751 -0.016129013 
    1260    699750.41    299.84551    292.36089    89.625069    88.333349    88.387116   -292.36089 -0.015886799 
    1280    699684.97    299.09283   -283.77093    89.647128    88.294047    88.396433    283.77093 -0.015644586 
    1300    699555.62    300.31664    325.50156    89.669187     88.27325    88.379168   -325.50156 -0.015402372 
    1320    699747.79     300.3045   -480.42196    89.691245    88.314928    88.339993    480.42196 -0.015160159 
    1340    700042.84    300.73985   -406.79765    89.713304    88.331766     88.33867    406.79765 -0.014917946 
    1360    699881.26    301.11228   -529.51802    89.735363    88.345255    88.283087    529.51802 -0.014675732 
    1380    699907.03    301.10407   -895.80454    89.757422    88.364168    88.245749    895.80454 -0.014433519 
    1400    699928.78    300.77545   -366.57691    89.779481    88.282057    88.308868    366.57691 -0.014191305 
    1420    699168.18    300.68178   -262.67391     89.80154    88.196283    88.277006    262.67391 -0.013949092 
    1440    700654.17    300.96418   -202.41452    89.823598    88.331385    88.307628    202.41452 -0.013706878 
    1460     701348.3    301.09107   -302.95697    89.845657    88.383924    88.320878    302.95697 -0.013464665 
    1480    701084.48    300.48451   -1.8883727    89.867716    88.287403    88.362482    1.8883727 -0.013222452 
    1500    700711.08    301.19872    301.46696    89.889775    88.180481    88.400806   -301.46696 -0.012980238 
    1520    701042.67    300.25157   -360.00448    89.911834    88.171647      88.4298    360.00448 -0.012738025 
    1540    701437.63    301.63625   -83.429073    89.933893    88.194572    88.434925    83.429073 -0.012495811 
    1560    701345.01    301.33356   -201.75133    89.955951    88.212853    88.383245    201.75133 -0.012253598 
    1580    701272.18    299.31767   -493.13847     89.97801    88.190591    88.374704    493.13847 -0.012011384 
    1600    701252.88    299.48646   -564.79069    90.000069    88.184946    88.356267    564.79069 -0.011769171 
    1620    700806.64    299.84924   -454.81442    90.022128    88.105319    88.358189    454.81442 -0.011526957 
    1640    701671.52    300.26242   -283.59746    90.044187    88.170431    88.380246    283.59746 -0.011284744 
    1660    701717.55    300.23523   -384.79157    90.066246    88.184819    88.349979    384.79157 -0.011042531 
    1680    701003.96    299.40585   -62.277328    90.088304    88.138452    88.284942    62.277328 -0.010800317 
    1700     700643.4    298.90867    176.37299    90.110363    88.121628    88.234775   -176.37299 -0.010558104 
    1720    701598.09    300.90525    100.47907    90.132422    88.151615     88.30333   -100.47907  -0.01031589 
    1740    702008.47    300.32899     270.2576    90.154481    88.148736    88.336247    -270.2576 -0.010073677 
    1760    701482.05    299.36707    -190.5653     90.17654    88.117327     88.27987     190.5653 -0.0098314634 
    1780    701465.34    300.15951   -72.508007    90.198599    88.080291    88.293287    72.508007 -0.0095892499 
    1800    701769.97    299.07733   -289.92136    90.220658    88.105108     88.28516    289.92136 -0.0093470365 
    1820     702159.6    300.01416    -655.3176    90.242716    88.117499    88.300166     655.3176 -0.0091048231 
    1840    702058.27    300.34304   -611.75858    90.264775    88.061701    88.321774    611.75858 -0.0088626096 
    1860    702036.25    300.59926   -316.43893    90.286834    88.013836    88.345445    316.43893 -0.0086203962 
    1880    701943.74    299.25129    16.832489    90.308893    87.993901    88.332234   -16.832489 -0.0083781827 
    1900     702620.7    299.85925   -156.40711    90.330952    88.033221     88.35635    156.40711 -0.0081359693 
    1920    702506.06    298.71627   -16.928136    90.353011    87.996411    88.357311    16.928136 -0.0078937559 
    1940    701675.41     299.8677    190.21756    90.375069    87.923772    88.304189   -190.21756 -0.0076515424 
    1960    701727.91    300.96004    212.15723    90.397128    87.953339    88.259565   -212.15723 -0.007409329 
    1980    702385.07     301.8192    167.02668    90.419187     88.00602    88.267799   -167.02668 -0.0071671156 
    2000    702980.21    300.56721    -124.8731    90.441246    88.047226    88.279708     124.8731 -0.0069249021 
    2020    702642.55    301.55932   -498.19223    90.463305    88.024214     88.23885    498.19223 -0.0066826887 
    2040    702239.17    301.72532   -456.16992    90.485364    88.013005    88.177923    456.16992 -0.0064404752 
    2060    703104.05    302.67974   -641.55479    90.507422    88.053179    88.224735    641.55479 -0.0061982618 
    2080     702900.7    301.29231   -738.40321    90.529481    88.045037    88.185882    738.40321 -0.0059560484 
    2100    702506.83    301.65921   -602.89086     90.55154    88.020161    88.139899    602.89086 -0.0057138349 
    2120    702845.17    300.73127   -525.91648    90.573599     88.06561    88.115375    525.91648 -0.0054716215 
    2140    702326.37      301.629   -602.07494    90.595658    88.011912    88.082602    602.07494 -0.005229408 
    2160    702449.86    300.85964    -112.0372    90.617717    87.991307    88.097269     112.0372 -0.0049871946 
    2180    702965.38    300.21084   -75.300414    90.639776    88.002697    88.129059    75.300414 -0.0047449812 
    2200    702548.86    299.82392   -6.2971643    90.661834    87.974376    88.083758    6.2971643 -0.0045027677 
    2220    702078.66    299.47929   -197.36783    90.683893    87.895054    88.082813    197.36783 -0.0042605543 
    2240    702230.21    299.88785   -284.40302    90.705952     87.90551    88.069925    284.40302 -0.0040183409 
    2260    703306.18    299.73054   -332.25595    90.728011    87.971964    88.116808    332.25595 -0.0037761274 
    2280    703108.35    299.75355   -347.59611     90.75007    87.941446    88.101172    347.59611 -0.003533914 
    2300    703326.58    299.18427   -167.00248    90.772129    87.952102    88.096425    167.00248 -0.0032917005 
    2320    703689.45    299.52231    -378.5565    90.794187    87.944006    88.128576     378.5565 -0.0030494871 
    2340    703755.69     299.6583   -595.06128    90.816246     87.88472    88.174904    595.06128 -0.0028072737 
    2360    703431.36    298.77828   -375.10557    90.838305    87.850592    88.147096    375.10557 -0.0025650602 
    2380    703545.32    300.15088   -396.71762    90.860364     87.86029    88.130245    396.71762 -0.0023228468 
    2400    703068.95     301.2819    65.871742    90.882423    87.833342    88.076209   -65.871742 -0.0020806333 
    2420     702598.7    299.71256   -343.37492    90.904482     87.84523    87.984032    343.37492 -0.0018384199 
    2440    702754.89    298.82937    321.54544     90.92654    87.828846    87.998655   -321.54544 -0.0015962065 
    2460    702516.27    298.97832   -254.79344    90.948599    87.771753    88.004646    254.79344 -0.001353993 
    2480    702228.15    301.83162     -590.856    90.970658    87.711391    88.007746      590.856 -0.0011117796 
    2500    702447.94    301.36521   -238.53719    90.992717    87.742394    87.982851    238.53719 -0.00086956615 
    2520    703106.81    299.88589   -752.25522    91.014776    87.802838    87.983422    752.25522 -0.00062735271 
    2540    702865.57    299.08923   -371.13544    91.036835    87.821965    87.912772    371.13544 -0.00038513927 
    2560       702650    299.79041   -281.35367    91.058893    87.756225    87.930339    281.35367 -0.00014292584 
    2580    702865.07    300.94839   -735.25767    91.080952    87.778164    87.913972    735.25767 9.9287603e-05 
    2600     703078.5    301.02801   -274.20701    91.103011    87.813557     87.88394    274.20701 0.00034150104 
    2620    702857.24    302.20724   -161.91673     91.12507    87.776461    87.872136    161.91673 0.00058371448 
    2640    703086.43    302.81277    31.329781    91.147129    87.673654    87.982565   -31.329781 0.00082592792 
    2660    703032.71    300.76784   -19.653455    91.169188     87.59305    88.035493    19.653455 0.0010681414 
    2680    703026.04    300.75754    286.88878    91.191247    87.614376    87.991938   -286.88878 0.0013103548 
    2700    704095.22    300.63826   -59.630531    91.213305    87.678969    88.039541    59.630531 0.0015525682 
    2720    704795.44     301.6795    -534.4825    91.235364     87.69374    88.090947     534.4825 0.0017947817 
    2740    704672.23    300.25964   -570.99781    91.257423    87.655982    88.092188    570.99781 0.0020369951 
    2760    704874.78    299.01311   -796.97446    91.279482    87.715465    88.036473    796.97446 0.0022792085 
    2780    705583.74    300.84603   -1034.8205    91.301541    87.741823    88.077261    1034.8205  0.002521422 
    2800    705454.92    299.03149   -820.72104      91.3236    87.718032    88.063788    820.72104 0.0027636354 
    2820    705527.26    298.79363   -541.79728    91.345658    87.723243    88.046319    541.79728 0.0030058489 
    2840    705948.73    300.16933   -192.71531    91.367717    87.761953    88.038799    192.71531 0.0032480623 
    2860    706122.38    299.07351   -353.04528    91.389776    87.717471    88.083844    353.04528 0.0034902757 
    2880    705245.64    299.58443   -105.84342    91.411835    87.674043    87.996813    105.84342 0.0037324892 
    2900    705154.09    298.51631   -185.25473    91.433894    87.649324    87.988972    185.25473 0.0039747026 
    2920    705340.28    300.72386   -366.69975    91.455953    87.676416    87.963787    366.69975 0.0042169161 
    2940    705506.22    300.29011   -79.181607    91.478011     87.67691    87.962771    79.181607 0.0044591295 
    2960    705328.52    299.22196   -60.103992     91.50007    87.677347    87.918975    60.103992 0.0047013429 
    2980    705491.27    298.79641   -323.08006    91.522129     87.69777    87.897593    323.08006 0.0049435564 
    3000    705438.87    300.11523   -769.52637    91.544188     87.68586    87.881819    769.52637 0.0051857698 
    3020    705515.88     300.2655   -576.02591    91.566247     87.65189    87.904296    576.02591 0.0054279832 
    3040     705984.1     300.8697   -591.00345    91.588306    87.622842      87.9706    591.00345 0.0056701967 
    3060    705585.01     299.3825   -772.71278    91.610364    87.569086    87.953661    772.71278 0.0059124101 
    3080    705076.46    300.47791   -148.77414    91.632423    87.489104    87.949439    148.77414 0.0061546236 
    3100    704944.74    301.45873    109.98937    91.654482    87.420462    87.980873   -109.98937  0.006396837 
    3120    705742.94    300.75187    -142.4675    91.676541    87.440472    88.039148     142.4675 0.0066390504 
    3140    705891.95    300.40582   -13.610222      91.6986    87.440496     88.03653    13.610222 0.0068812639 
    3160    705692.89    300.79729   -25.815143    91.720659    87.447241     87.98375    25.815143 0.0071234773 
    3180    705597.13    301.47257   -67.224753    91.742718    87.444979    87.952933    67.224753 0.0073656908 
    3200    705732.17    301.26836   -302.57444    91.764776    87.434285    87.959376    302.57444 0.0076079042 
    3220    706079.23    301.12331   -398.87571    91.786835     87.43426    87.981508    398.87571 0.0078501176 
    3240    706524.55    300.95354   -312.84629    91.808894    87.523873    87.925728    312.84629 0.0080923311 
    3260    706410.75    301.84671   -443.66864    91.830953    87.518797    87.895547    443.66864 0.0083345445 
    3280    706340.66    302.09336   -302.79112    91.853012    87.541963    87.842467    302.79112  0.008576758 
    3300    707012.78    301.57531   -775.76608    91.875071      87.5461     87.90079    775.76608 0.0088189714 
    3320    706620.78    301.28982   -552.42138    91.897129    87.588012    87.788937    552.42138 0.0090611848 
    3340    706491.73    301.03382   -533.95514    91.919188     87.53866    87.801313    533.95514 0.0093033983 
    3360    706453.51    301.53065   -326.70431    91.941247    87.515921    87.798305    326.70431 0.0095456117 
    3380    706526.67    300.35133    16.791961    91.963306    87.441618    87.860931   -16.791961 0.0097878251 
    3400    706257.64    299.05679   -113.49958    91.985365    87.416238    87.831906    113.49958  0.010030039 
    3420    707000.81    299.60031   -413.91781    92.007424    87.430923    87.888485    413.91781  0.010272252 
    3440     706614.9    299.62834   -409.93819    92.029482    87.478826    87.771367    409.93819  0.010514465 
    3460    706250.64    301.33659   -409.84783    92.051541    87.455684    87.728307    409.84783  0.010756679 
    3480    706546.82    300.23479    -323.2091      92.0736    87.498711    87.700924     323.2091  0.010998892 
    3500    706901.09    298.80419   -332.14546    92.095659    87.524491    87.698042    332.14546  0.011241106 
    3520    706978.91    299.34204   -533.64994    92.117718    87.502928    87.708302    533.64994  0.011483319 
    3540     707211.2    299.33208   -787.49998    92.139777    87.484836    87.734255    787.49998  0.011725533 
    3560    707719.27    300.59824   -572.39126    92.161835    87.519356    87.741649    572.39126  0.011967746 
    3580    707035.51    299.66657   -135.58973    92.183894    87.477624    87.677709    135.58973   0.01220996 
    3600    707054.86     299.7485   -215.74628    92.205953     87.49808     87.63864    215.74628  0.012452173 
    3620    707092.25    300.64566   -294.26975    92.228012    87.496581    87.623812    294.26975  0.012694386 
    3640    707107.91    300.75579   -633.11984    92.250071    87.493009    87.608377    633.11984    0.0129366 
    3660    707005.98    300.49623   -107.88501     92.27213    87.500455    87.567355    107.88501  0.013178813 
    3680    707122.53    300.02144    -220.9932    92.294189    87.532596    87.528706     220.9932  0.013421027 
    3700    707257.22    300.20804   -274.45806    92.316247    87.507755    87.549306    274.45806   0.01366324 
    3720    708057.35    300.16722   -366.59608    92.338306    87.480132    87.655082    366.59608  0.013905454 
    3740    708054.08    298.86704   -258.24231    92.360365    87.434698     87.67928    258.24231  0.014147667 
    3760    708265.65    300.40499   -263.88324    92.382424    87.442534    87.676679    263.88324   0.01438988 
    3780    708251.25    298.69761   -106.96648    92.404483     87.42669    87.669851    106.96648  0.014632094 
    3800    708544.55    298.23753    -498.0066    92.426542     87.42521     87.68671     498.0066  0.014874307 
    3820    708665.01    299.40366   -824.68331      92.4486     87.42491    87.680992    824.68331  0.015116521 
    3840    708549.31    299.51177   -956.58221    92.470659    87.404282     87.66645    956.58221  0.015358734 
    3860    708521.48     298.5628    -819.9305    92.492718     87.38956    87.656863     819.9305  0.015600948 
    3880    708550.45    298.84096   -599.34525    92.514777    87.333897    87.695404    599.34525  0.015843161 
    3900    708242.81    297.74946   -198.00345    92.536836    87.276227    87.694341    198.00345  0.016085375 
    3920     708047.4    299.55635   -173.32472    92.558895    87.288176    87.637253    173.32472  0.016327588 
    3940    708937.85    300.12928    103.66258    92.580953    87.312631    87.701989   -103.66258  0.016569801 
    3960    709452.09    299.13036   -3.0269278    92.603012     87.36116    87.695956    3.0269278  0.016812015 
    3980     709310.4    299.78166    80.393804    92.625071    87.334881    87.683937   -80.393804  0.017054228 
    4000    709836.58    300.15327   -292.09638     92.64713    87.369459     87.69337    292.09638  0.017296442 
    4020    710202.18     299.1889   -553.68328    92.669189    87.430125    87.656785    553.68328  0.017538655 
    4040    710533.36    301.25551   -706.97952    92.691248    87.480043    87.626761    706.97952  0.017780869 
    4060    710767.15    300.27154    -1049.487    92.713307    87.425589    87.689321     1049.487  0.018023082 
    4080    710788.04    301.11049   -831.20427    92.735365    87.400222    87.696486    831.20427  0.018265295 
    4100    710714.43    299.98628   -741.00779    92.757424    87.386137    87.680681    741.00779  0.018507509 
    4120    710233.31    301.42848   -719.44467    92.779483    87.352714     87.63401    719.44467  0.018749722 
    4140    710642.75    300.56599   -337.61625    92.801542     87.37505    87.641278    337.61625  0.018991936 
    4160    710899.88    300.28124   -657.08817    92.823601    87.383831    87.643346    657.08817  0.019234149 
    4180    710910.68    300.89778   -217.66209     92.84566    87.380544     87.62715    217.66209  0.019476363 
    4200    710439.71    302.32432    10.010603    92.867718    87.328684    87.600289   -10.010603  0.019718576 
    4220    710398.32    300.15906   -21.545941    92.889777    87.317194    87.585907    21.545941   0.01996079 
    4240     710887.4    299.40701   -261.09237    92.911836    87.294004    87.648676    261.09237  0.020203003 
    4260    711076.34    299.56481   -405.23669    92.933895    87.284321    87.660885    405.23669  0.020445216 
    4280    711095.79    300.09033   -481.49386    92.955954    87.254191    87.672744    481.49386   0.02068743 
    4300    711153.78    300.55116   -954.43157    92.978013    87.200467    87.713099    954.43157  0.020929643 
    4320    711263.53    300.02193   -1069.4844    93.000071    87.213642    87.692577    1069.4844  0.021171857 
    4340       711114    300.25656   -554.82183     93.02213    87.255049    87.611755    554.82183   0.02141407 
    4360    711025.43    299.69166   -537.96339    93.044189    87.252777    87.582356    537.96339  0.021656284 
    4380    711466.34     299.2343   -477.92254    93.066248    87.268536    87.600073    477.92254  0.021898497 
    4400     711546.2    299.43138   -453.74957    93.088307     87.24521    87.612561    453.74957  0.022140711 
    4420    711451.09    298.51492    182.35134    93.110366    87.245764    87.579541   -182.35134  0.022382924 
    4440    711603.92    299.59226    9.2674031    93.132424    87.272849    87.550426   -9.2674031  0.022625137 
    4460    711931.47    298.49896   -154.29811    93.154483    87.280828     87.56198    154.29811  0.022867351 
    4480    712562.95    299.78812   -310.93912    93.176542    87.274392     87.62536    310.93912  0.023109564 
    4500    712803.49    300.03931   -522.00906    93.198601     87.30374    87.604734    522.00906  0.023351778 
    4520     713480.6    299.11844   -867.67016     93.22066    87.386082    87.584596    867.67016  0.023593991 
    4540    713637.03    299.43051   -984.89183    93.242719    87.471349    87.497698    984.89183  0.023836205 
    4560    713517.11       300.38   -1076.5136    93.264778    87.485518    87.448138    1076.5136  0.024078418 
    4580    713659.45    300.75865   -960.21969    93.286836    87.484499     87.44592    960.21969  0.024320631 
    4600       713305    300.91374   -747.85262    93.308895    87.455615    87.410685    747.85262  0.024562845 
    4620    712885.69    301.18055   -6.3025805    93.330954    87.373389    87.420846    6.3025805  0.024805058 
    4640    713051.39    301.08003    72.556914    93.353013    87.380792    87.413098   -72.556914  0.025047272 
    4660    713350.93    301.59642   -312.41543    93.375072    87.388287    87.421661    312.41543  0.025289485 
    4680    712802.89    300.44729    -161.0478    93.397131    87.280071     87.44215     161.0478  0.025531699 
    4700    712790.53    301.80882   -93.682738    93.419189    87.199517    87.500744    93.682738  0.025773912 
    4720    713205.74    302.11627   -390.66632    93.441248    87.169972    87.560713    390.66632  0.026016126 
    4740    712729.98    302.99436   -385.57059    93.463307    87.129667    87.522121    385.57059  0.026258339 
    4760    712728.03    303.21994    -454.1328    93.485366     87.16192     87.46885     454.1328  0.026500552 
    4780     713226.3    302.88623   -823.69452    93.507425    87.174939    87.496283    823.69452  0.026742766 
    4800    713485.78    301.82706   -843.92381    93.529484    87.187453    87.494912    843.92381  0.026984979 
    4820    713459.52    301.66758   -804.43646    93.551542    87.176069    87.482483    804.43646  0.027227193 
    4840    713744.26    301.63914   -362.63807    93.573601    87.225661    87.447021    362.63807  0.027469406 
    4860    714163.85    301.03413   -606.45527     93.59566    87.250757    87.452644    606.45527   0.02771162 
    4880    713476.99    300.55248   -354.29902    93.617719    87.209078    87.389695    354.29902  0.027953833 
    4900    713494.33    300.54724   -147.98315    93.639778    87.176147    87.404236    147.98315  0.028196046 
    4920    713672.36    302.12836   -478.39978    93.661837    87.168565    87.413058    478.39978   0.02843826 
    4940    713205.07    300.14175   -114.62496    93.683895    87.149422    87.354438    114.62496  0.028680473 
    4960    713353.91    301.02718   -266.36418    93.705954    87.142264    87.359276    266.36418  0.028922687 
    4980    713317.56     300.2358   -769.72571    93.728013     87.12185    87.354728    769.72571    0.0291649 
    5000    712934.01    301.99025    -508.0274    93.750072    87.091728    87.317403     508.0274  0.029407114 
    5020     712719.7    301.09551   -792.85553    93.772131     87.15055    87.211719    792.85553  0.029649327 
    5040     713148.3      300.769   -809.48787     93.79419    87.203801    87.190365    809.48787  0.029891541 
    5060    713511.96    300.70024   -622.99634    93.816249    87.219427     87.19869    622.99634  0.030133754 
    5080     713049.8    301.26126   -534.41306    93.838307    87.148852    87.192278    534.41306  0.030375967 
    5100    712977.86    300.21161   -217.05833    93.860366    87.164409    87.147436    217.05833  0.030618181 
    5120    713632.33    298.92882   -175.02915    93.882425    87.152007    87.219346    175.02915  0.030860394 
    5140    714075.98    299.40448   -508.80519    93.904484    87.155805    87.249264    508.80519  0.031102608 
    5160    713985.84    299.91873   -117.90074    93.926543    87.133118    87.240472    117.90074  0.031344821 
    5180    713538.73    299.88484   -448.63306    93.948602    87.105538    87.192969    448.63306  0.031587035 
    5200    714557.63    299.43879   -729.30113     93.97066    87.124165    87.278315    729.30113  0.031829248 
    5220    715131.28     299.1787   -438.70505    93.992719    87.105164    87.346933    438.70505  0.032071461 
    5240    714989.82    298.67761    -485.9984    94.014778    87.053461    87.361019     485.9984  0.032313675 
    5260    715633.18    299.61015   -689.48982    94.036837    87.106263    87.366126    689.48982  0.032555888 
    5280    716318.68    299.17843   -660.02322    94.058896    87.194112    87.341217    660.02322  0.032798102 
    5300    716416.71    299.84006   -671.48881    94.080955    87.215084    87.311689    671.48881  0.033040315 
    5320    717063.43    299.85358   -486.65074    94.103013    87.196802     87.38834    486.65074  0.033282529 
    5340    717329.42    299.17729   -838.18422    94.125072     87.17095    87.426188    838.18422  0.033524742 
    5360    716649.13    299.87627   -290.07226    94.147131     87.12351     87.37036    290.07226  0.033766956 
    5380    716448.61    300.34716   -79.306567     94.16919    87.140682    87.308244    79.306567  0.034009169 
    5400    716977.41    300.88867   -248.15292    94.191249    87.170339    87.322504    248.15292  0.034251382 
    5420    716845.71    300.90308   -288.35364    94.213308    87.157678    87.298702    288.35364  0.034493596 
    5440    716647.69    300.82618   -349.93416    94.235366     87.10442    87.307508    349.93416  0.034735809 
    5460    717551.95    301.98237   -850.71036    94.257425    87.100335    87.401312    850.71036  0.034978023 
    5480    717543.48    300.07801   -713.86172    94.279484    87.075937    87.404314    713.86172  0.035220236 
    5500    716958.66    301.35687   -399.20459    94.301543    87.030931    87.357799    399.20459   0.03546245 
    5520    717166.45    301.76592   -609.33456    94.323602    87.023817    87.369824    609.33456  0.035704663 
    5540    717256.02     300.3117   -659.77091    94.345661    86.976846    87.407483    659.77091  0.035946877 
    5560    716638.81    301.14614   -616.41332     94.36772    86.941404    87.347447    616.41332   0.03618909 
    5580    717063.79     301.9128   -670.56299    94.389778    86.992026    87.327972    670.56299  0.036431303 
    5600    717156.08    299.99834   -820.41822    94.411837    87.027202    87.283513    820.41822  0.036673517 
    5620    716620.18    300.62477   -534.34665    94.433896    86.987403    87.237812    534.34665   0.03691573 
    5640    716566.32    300.82629   -898.96863    94.455955    86.996326    87.201937    898.96863  0.037157944 
    5660    717007.13    300.63372   -955.42865    94.478014    87.000079    87.231447    955.42865  0.037400157 
    5680    717105.32    300.57333   -856.15951    94.500073    87.027326    87.195719    856.15951  0.037642371 
    5700    716634.64    299.81534   -568.42393    94.522131    87.017304    87.128185    568.42393  0.037884584 
    5720    716785.94    299.67135   -362.65453     94.54419    87.028325    87.115213    362.65453  0.038126797 
    5740     716879.9    299.71617   -220.46743    94.566249     86.99203    87.142652    220.46743  0.038369011 
    5760    716953.28    300.51167    -149.9785    94.588308    86.992268     87.13101     149.9785  0.038611224 
    5780    716690.14    300.64799    -390.0174    94.610367    86.923868    87.147245     390.0174  0.038853438 
    5800    716914.65    300.08275   -622.38739    94.632426    86.965295    87.112706    622.38739  0.039095651 
    5820    716662.71    299.07217   -140.07703    94.654484    86.944719    87.082403    140.07703  0.039337865 
    5840    716378.18     299.1976   -383.84027    94.676543    86.931133    87.041149    383.84027  0.039580078 
    5860    716161.32    300.01514   -527.06246    94.698602    86.867937     87.05782    527.06246  0.039822292 
    5880    716290.26    300.45554   -652.61884    94.720661    86.839423      87.0818    652.61884  0.040064505 
    5900    715769.42    301.31325   -772.39714     94.74272    86.795545      87.0422    772.39714  0.040306718 
    5920    715883.04    299.43271   -715.96344    94.764779    86.816855    87.014389    715.96344  0.040548932 
    5940    715969.42    299.50464   -1116.9876    94.786838    86.828294    86.993174    1116.9876  0.040791145 
    5960    715770.71      299.444   -530.49547    94.808896    86.864114    86.912939    530.49547  0.041033359 
    5980    715670.24    300.25211   -352.78742    94.830955     86.82916    86.915499    352.78742  0.041275572 
    6000    716214.73    299.29145   -318.50118    94.853014    86.832166    86.958388    318.50118  0.041517786 
    6020    716508.71    298.78791   -414.84738    94.875073     86.78019    87.025946    414.84738  0.041759999 
    6040    716415.76    298.62814   -219.44313    94.897132    86.739202    87.035539    219.44313  0.042002212 
    6060    716991.93    299.28094   -492.30075    94.919191     86.75984    87.064578    492.30075  0.042244426 
    6080     717623.5     298.0724   -553.12466    94.941249     86.80697    87.073723    553.12466  0.042486639 
    6100    717519.28    297.87003   -305.56517    94.963308    86.767658    87.080289    305.56517  0.042728853 
    6120    717791.72    300.06883   -498.06184    94.985367    86.812745    87.047891    498.06184  0.042971066 
    6140    718903.72    299.31954   -1060.1588    95.007426    86.893888    87.081109    1060.1588   0.04321328 
    6160    719071.01    298.38519   -941.02433    95.029485    86.876436    87.098647    941.02433  0.043455493 
    6180    718907.72    298.96797   -833.77494    95.051544    86.851519    87.083636    833.77494  0.043697707 
    6200    718750.97    299.10745   -283.88381    95.073602    86.814318    87.081747    283.88381   0.04393992 
    6220     719149.2    300.26542   -346.75039    95.095661    86.781709    87.142517    346.75039  0.044182133 
    6240     719167.2     299.8827   -518.79217     95.11772    86.753858    87.152458    518.79217  0.044424347 
    6260    718894.35    299.84955   -658.86395    95.139779     86.73199    87.121155    658.86395   0.04466656 
    6280    719391.31    299.86165   -678.81913    95.161838    86.777576    87.115383    678.81913  0.044908774 
    6300     719390.9    300.00839   -284.47381    95.183897      86.8053    87.067328    284.47381  0.045150987 
    6320    718799.12    300.23156   -396.60894    95.205955    86.778873    87.002035    396.60894  0.045393201 
    6340    718790.69     300.8573   -640.23848    95.228014    86.767893     86.99187    640.23848  0.045635414 
    6360    719133.19    300.25414   -567.31166    95.250073    86.814957    86.965993    567.31166  0.045877627 
    6380    719820.11    301.11368   -699.56062    95.272132     86.89875     86.94499    699.56062  0.046119841 
    6400    719734.34    299.20771    -262.2184    95.294191     86.93286    86.880403     262.2184  0.046362054 
    6420    719846.48    300.11133   -542.94057     95.31625    86.923351    86.883334    542.94057  0.046604268 
    6440    719701.17    300.23838   -689.67329    95.338309    86.888405    86.880626    689.67329  0.046846481 
    6460     719617.3    300.71632   -844.43085    95.360367    86.906103     86.83272    844.43085  0.047088695 
    6480     720373.3    298.94021   -790.23555    95.382426     87.02519    86.784919    790.23555  0.047330908 
    6500     720617.8    301.17188   -696.63186    95.404485    87.021021     86.79846    696.63186  0.047573122 
    6520    720171.07    300.06353   -416.52343    95.426544    86.936618    86.808796    416.52343  0.047815335 
    6540    720533.93    299.46798   -194.27358    95.448603    86.877201     86.89185    194.27358  0.048057548 
    6560    720735.54    300.92864   -583.53856    95.470662    86.915731    86.857559    583.53856  0.048299762 
    6580    720329.52     299.8331   -451.80772     95.49272    86.932548    86.771786    451.80772  0.048541975 
    6600    720092.16    299.11098   -562.10189    95.514779     86.81754    86.838044    562.10189  0.048784189 
    6620    720179.38    300.76816   -792.79769    95.536838    86.798186    86.847869    792.79769  0.049026402 
    6640    719196.17    298.63209   -454.54198    95.558897    86.746213    86.761232    454.54198  0.049268616 
    6660    718210.36    299.30241   -509.91023    95.580956    86.631038    86.737475    509.91023  0.049510829 
    6680    718781.87    299.92599   -473.31089    95.603015    86.622304    86.795218    473.31089  0.049753042 
    6700    719119.02    298.20641   -572.58165    95.625073    86.631824    86.806358    572.58165  0.049995256 
    6720    719402.21     299.0604   -537.65378    95.647132    86.662696    86.789587    537.65378  0.050237469 
    6740    719650.74    299.35845   -563.89941    95.669191     86.65939    86.802863    563.89941  0.050479683 
    6760    719635.13    297.92706    -1046.394     95.69125    86.608762    86.831699     1046.394  0.050721896 
    6780    719273.71    299.87409   -708.30686    95.713309    86.539328    86.837705    708.30686   0.05096411 
    6800    720289.68    299.38473   -704.69043    95.735368    86.596904    86.882522    704.69043  0.051206323 
    6820    721208.08    299.61889   -690.61822    95.757426    86.704569    86.865262    690.61822  0.051448537 
    6840    720382.39    299.23621    -525.1381    95.779485    86.716335     86.73406     525.1381   0.05169075 
    6860     719763.4    298.96864   -442.50104    95.801544    86.687988    86.667911    442.50104  0.051932963 
    6880    719966.05    299.99304   -605.39597    95.823603     86.68467    86.675672    605.39597  0.052175177 
    6900    719817.67    299.70635   -449.09003    95.845662    86.668178    86.654351    449.09003   0.05241739 
    6920    720214.74     300.8686   -223.86968    95.867721    86.695824    86.654561    223.86968  0.052659604 
    6940    720442.23     299.7317   -502.59812     95.88978    86.640334    86.717495    502.59812  0.052901817 
    6960     719719.2    300.35429   -752.21996    95.911838    86.478348    86.772775    752.21996  0.053144031 
    6980    719207.19    299.47096   -365.52825    95.933897    86.421468    86.748164    365.52825  0.053386244 
    7000    720599.19     300.9917   -562.95066    95.955956    86.530428    86.786661    562.95066  0.053628458 
    7020     721326.1    300.69754   -670.65778    95.978015    86.561681    86.822883    670.65778  0.053870671 
    7040    720696.98    300.19962   -696.11026    96.000074    86.498229    86.790846    696.11026  0.054112884 
    7060    720636.35    300.92866   -938.68763    96.022133    86.482827     86.77906    938.68763  0.054355098 
    7080     720774.4    299.61533   -1051.1517    96.044191    86.485528    86.773038    1051.1517  0.054597311 
    7100    720739.44    300.02184    -774.2668     96.06625    86.448747    86.785815     774.2668  0.054839525 
    7120    720686.89    299.15927   -454.41856    96.088309    86.422633    86.785782    454.41856  0.055081738 
    7140    721434.72    298.92092   -704.53813    96.110368    86.480288    86.797992    704.53813  0.055323952 
    7160    721627.01    298.08646   -389.56115    96.132427    86.442845    86.838802    389.56115  0.055566165 
    7180    721932.38    300.81511   -492.45134    96.154486    86.459175    86.839214    492.45134  0.055808378 
    7200    722772.96    299.69467   -624.14882    96.176544    86.485569    86.893857    624.14882  0.056050592 
    7220    723256.13    298.73226   -537.74167    96.198603    86.503972    86.913514    537.74167  0.056292805 
    7240    722736.42    299.45574    54.594481    96.220662    86.448571    86.886796   -54.594481  0.056535019 
    7260    723593.45     300.0241   -481.84053    96.242721    86.509622    86.908513    481.84053  0.056777232 
    7280    724501.24    299.85656    -804.5617     96.26478    86.579119    86.927772     804.5617  0.057019446 
    7300    724589.93    299.22054   -601.97685    96.286839    86.644532    86.852877    601.97685  0.057261659 
    7320    724102.49    299.64279   -391.07368    96.308898       86.518    86.901477    391.07368  0.057503873 
    7340    724567.96    299.50461   -570.20471    96.330956    86.490144    86.965427    570.20471  0.057746086 
    7360    724007.18    301.06931   -285.98739    96.353015    86.474876    86.893565    285.98739  0.057988299 
    7380    724090.09    299.85538   -587.43477    96.375074    86.474477    86.884026    587.43477  0.058230513 
    7400    724183.03    301.45675   -852.84559    96.397133    86.520387    86.829195    852.84559  0.058472726 
    7420    723530.33    300.25421   -729.55816    96.419192    86.441913    86.809827    729.55816   0.05871494 
    7440    723078.44    299.58998   -253.96141    96.441251    86.402668    86.775161    253.96141  0.058957153 
    7460    723417.87    301.63122   -231.51124    96.463309    86.441716    86.756834    231.51124  0.059199367 
    7480    723190.99    301.66094   -792.34016    96.485368    86.446818     86.70468    792.34016   0.05944158 
    7500    723018.44    300.84493   -493.33069    96.507427    86.398577    86.712567    493.33069  0.059683793 
    7520    723320.98    301.23518   -586.66487    96.529486    86.396181    86.731434    586.66487  0.059926007 
    7540    724127.49    301.35174   -578.31535    96.551545    86.425189    86.779166    578.31535   0.06016822 
    7560    724180.23    300.61914   -255.56126    96.573604    86.396328    86.794646    255.56126  0.060410434 
    7580     724758.4    300.54621   -802.34918    96.595662    86.404105    86.836289    802.34918  0.060652647 
    7600    724654.82    300.54445   -958.43877    96.617721    86.349136    86.859314    958.43877  0.060894861 
    7620    724378.09     300.0557   -526.87085     96.63978     86.29343    86.862363    526.87085  0.061137074 
    7640    724168.48    300.21643   -433.01337    96.661839    86.250906    86.860216    433.01337  0.061379288 
    7660    724122.38    298.72743   -557.96944    96.683898    86.269684    86.815969    557.96944  0.061621501 
    7680    724071.26    299.74594   -752.95679    96.705957    86.234937    86.825008    752.95679  0.061863714 
    7700    724067.12    300.99243   -1035.8348    96.728015    86.242642    86.796957    1035.8348  0.062105928 
    7720     724244.6    300.39012   -994.36647    96.750074    86.220906    86.820319    994.36647  0.062348141 
    7740    724363.98    300.38547   -639.95059    96.772133    86.206278    86.829568    639.95059  0.062590355 
    7760    723963.68    300.19811   -433.15346    96.794192    86.183514    86.784724    433.15346  0.062832568 
    7780    723641.61    301.13144   -551.25702    96.816251    86.182175    86.727698    551.25702  0.063074782 
    7800    723932.15    299.01268    -944.5169     96.83831    86.198954     86.72587     944.5169  0.063316995 
    7820    724112.81    298.91759   -863.89043    96.860369    86.162644    86.764305    863.89043  0.063559208 
    7840    723488.14    300.76369   -207.27654    96.882427    86.123755    86.708855    207.27654  0.063801422 
    7860     724150.8    301.20175   -116.50414    96.904486    86.163405    86.728589    116.50414  0.064043635 
    7880    724953.29    299.23912   -339.11466    96.926545     86.22588    86.742044    339.11466  0.064285849 
    7900    724974.42    299.92961   -279.24836    96.948604    86.200454    86.750417    279.24836  0.064528062 
    7920    724838.52    299.88492   -430.57562    96.970663    86.180406    86.734597    430.57562  0.064770276 
    7940    724970.31    300.06627    -536.4451    96.992722    86.192153    86.718817     536.4451  0.065012489 
    7960    724996.13    299.51561   -477.55639     97.01478    86.181508    86.712897    477.55639  0.065254703 
    7980    725247.31     300.0773   -694.48866    97.036839    86.214788    86.689743    694.48866  0.065496916 
    8000    725167.93    299.57797   -800.23059    97.058898    86.185409    86.690096    800.23059  0.065739129 
    8020    725284.13    299.15798   -837.96974    97.080957    86.187038    86.682649    837.96974  0.065981343 
    8040    725091.38    300.10865   -872.40637    97.103016    86.153051    86.674105    872.40637  0.066223556 
    8060    725566.74    299.87198   -778.59523    97.125075    86.206542    86.657425    778.59523   0.06646577 
    8080     725427.5    299.43024   -668.08684    97.147133         86.2    86.627696    668.08684  0.066707983 
    8100    725912.36    300.05022   -313.07105    97.169192    86.236613    86.629121    313.07105  0.066950197 
    8120    726245.64    298.04688   -132.18123    97.191251    86.253417    86.632341    132.18123   0.06719241 
    8140    726347.96    298.67359   -264.96414     97.21331    86.249645    86.628675    264.96414  0.067434624 
    8160     726592.8    298.39904   -479.83443    97.235369    86.230961     86.65699    479.83443  0.067676837 
    8180    726944.37    300.45919   -746.56379    97.257428    86.244686    86.665461    746.56379   0.06791905 
    8200    727385.48    299.23499   -928.87488    97.279486    86.215259    86.727978    928.87488  0.068161264 
    8220    727785.65    299.48343   -1085.0825    97.301545     86.22792     86.74328    1085.0825  0.068403477 
    8240    727992.23    298.71871    -850.5887    97.323604    86.232451    86.743678     850.5887  0.068645691 
    8260    728442.62     299.6536   -1026.9292    97.345663    86.244772    86.765277    1026.9292  0.068887904 
    8280    728555.82    298.62285   -702.25632    97.367722    86.221376    86.782643    702.25632  0.069130118 
    8300    728673.87    299.78863   -304.84285    97.389781    86.178129    86.820592    304.84285  0.069372331 
    8320    728869.29    299.89442    -380.4882     97.41184    86.168127    86.834289     380.4882  0.069614544 
    8340    728316.79     301.0788   -301.13234    97.433898    86.092755    86.824769    301.13234  0.069856758 
    8360    728541.86    300.11724   -628.73515    97.455957    86.099837      86.8248    628.73515  0.070098971 
    8380    728958.65    300.59932   -712.54595    97.478016    86.076602    86.878257    712.54595  0.070341185 
    8400    729654.97    299.79879   -687.13917    97.500075     86.07785    86.940311    687.13917  0.070583398 
    8420    729041.97    300.00169   -910.55131    97.522134    86.007653    86.918504    910.55131  0.070825612 
    8440    728682.32    300.81034   -872.77349    97.544193    86.025256    86.838205    872.77349  0.071067825 
    8460    728778.93    300.67261   -979.28527    97.566251    86.043363     86.81181    979.28527  0.071310039 
    8480    729183.85    301.01045   -880.75213     97.58831    86.120155    86.762977    880.75213  0.071552252 
    8500    728917.23    299.95475   -453.73467    97.610369    86.077796    86.754322    453.73467  0.071794465 
    8520    728485.16    301.34506   -242.61177    97.632428    86.095879    86.665103    242.61177  0.072036679 
    8540    728285.06    300.15005    91.898231    97.654487    86.083811     86.63387   -91.898231  0.072278892 
    8560    728201.55    300.75688   -190.20755    97.676546    86.085193    86.602983    190.20755  0.072521106 
    8580    729003.12    300.42362   -362.73223    97.698604     86.11385    86.649891    362.73223  0.072763319 
    8600    729019.53    299.81926   -495.53029    97.720663    86.081724    86.664612    495.53029  0.073005533 
    8620    729554.29    300.07892   -684.06091    97.742722    86.087954    86.702336    684.06091  0.073247746 
    8640    729306.67    299.81303   -578.79744    97.764781    86.040858    86.700784    578.79744  0.073489959 
    8660    729140.43    299.78569   -1053.7478     97.78684    85.994128    86.708559    1053.7478  0.073732173 
    8680     729618.2    299.54916    -778.1232    97.808899    86.022247    86.717452     778.1232  0.073974386 
    8700    729333.92    299.39265   -1101.9244    97.830957    86.050377    86.635787    1101.9244    0.0742166 
    8720       728535    299.38104   -862.14449    97.853016    85.973794    86.598448    862.14449  0.074458813 
    8740    728415.58    299.60432   -530.49892    97.875075    85.993981    86.544418    530.49892  0.074701027 
    8760    728502.87     299.2789   -772.53008    97.897134    86.001435    86.527787    772.53008   0.07494324 
    8780    728986.43    298.66766   -394.85964    97.919193    86.029728    86.537246    394.85964  0.075185454 
    8800    729391.93    300.10849   -411.02204    97.941252    86.037911    86.557648    411.02204  0.075427667 
    8820    729659.36    299.81906   -314.35875    97.963311    86.031394    86.576444    314.35875   0.07566988 
    8840    730177.56     300.4805   -208.37662    97.985369    86.031651    86.618168    208.37662  0.075912094 
    8860    730822.27    299.50937   -763.40912    98.007428    86.031663    86.675122    763.40912  0.076154307 
    8880    731628.64     299.4313   -613.76943    98.029487    86.031085    86.751814    613.76943  0.076396521 
    8900    732017.24    298.98768   -795.84395    98.051546     86.00347    86.806229    795.84395  0.076638734 
    8920     732551.9     299.5557    -878.7366    98.073605    86.009377    86.844128     878.7366  0.076880948 
    8940    732303.47    299.53362   -718.44423    98.095664    85.999909    86.804711    718.44423  0.077123161 
    8960    732458.95    300.05313   -971.86843    98.117722    86.034238    86.768984    971.86843  0.077365374 
    8980    733340.02    300.49021   -601.07265    98.139781    86.049589    86.838337    601.07265  0.077607588 
    9000    733449.73    300.04927   -814.99464     98.16184    86.062251    86.819036    814.99464  0.077849801 
    9020    732614.64    300.55292   -404.62619    98.183899    86.026505    86.736729    404.62619  0.078092015 
    9040    732059.87     300.7804   -217.11642    98.205958    86.010587    86.667617    217.11642  0.078334228 
    9060    732319.74    301.30516   -319.02024    98.228017    86.021019      86.6684    319.02024  0.078576442 
    9080    732245.98     301.2392   -206.14254    98.250075    86.026652    86.634541    206.14254  0.078818655 
    9100     732008.5    299.61502   -166.96728    98.272134    85.982676     86.63129    166.96728  0.079060869 
    9120    732292.67    300.39235   -490.03502    98.294193    85.985325    86.642801    490.03502  0.079303082 
    9140    732901.26    301.88518   -688.44175    98.316252    86.031612    86.648708    688.44175  0.079545295 
    9160    732355.21     300.3978   -789.91265    98.338311    85.990116    86.606502    789.91265  0.079787509 
    9180    732163.85    298.58523   -743.78669     98.36037    85.989116    86.565461    743.78669  0.080029722 
    9200    733121.59    298.67137   -1507.1821    98.382429    86.021394    86.626745    1507.1821  0.080271936 
    9220    733013.02    299.38921    -1363.754    98.404487    85.973411     86.64283     1363.754  0.080514149 
    9240    732467.56    298.55663   -619.95264    98.426546    85.896357    86.636601    619.95264  0.080756363 
    9260    732926.29    298.96003   -876.10414    98.448605    85.865985    86.702093    876.10414  0.080998576 
    9280    733104.03    297.24339   -678.13291    98.470664    85.915876    86.653343    678.13291   0.08124079 
    9300    733101.47    300.05556   -458.59222    98.492723    85.927904    86.621506    458.59222  0.081483003 
    9320    733081.69    299.83494   -420.94293    98.514782    85.887197    86.640818    420.94293  0.081725216 
    9340    733590.88    299.03839   -435.48532     98.53684    85.869584    86.699368    435.48532   0.08196743 
    9360    733060.94    300.25594   -344.78817    98.558899    85.838666    86.648545    344.78817  0.082209643 
    9380    732681.96    299.55222   -96.404385    98.580958    85.832246    86.590847    96.404385  0.082451857 
    9400     732965.4    299.23042   -350.23911    98.603017    85.876085    86.560755    350.23911   0.08269407 
    9420    732931.51    298.60127   -833.81782    98.625076    85.809008    86.605039    833.81782  0.082936284 
    9440     732336.5    301.32088   -629.29063    98.647135    85.776105    86.548566    629.29063  0.083178497 
    9460    732764.69    300.59257   -818.85681    98.669193    85.819606    86.535926    818.85681   0.08342071 
    9480     732897.3    300.46873   -789.62073    98.691252    85.825934     86.52586    789.62073  0.083662924 
    9500    732538.25    300.56178   -726.59982    98.713311    85.782948    86.507472    726.59982  0.083905137 
    9520    732463.44    300.06379   -610.32012     98.73537    85.736073    86.526594    610.32012  0.084147351 
    9540    733236.42    302.31167   -774.55048    98.757429    85.783899    86.550279    774.55048  0.084389564 
    9560    733771.09    301.12264   -885.21495    98.779488    85.865411    86.511845    885.21495  0.084631778 
    9580    733891.25    300.09767   -585.24831    98.801546    85.862738    86.509388    585.24831  0.084873991 
    9600    734001.82     300.7221   -421.82528    98.823605    85.819387    86.546804    421.82528  0.085116205 
    9620    734260.25    300.59297    -640.6599    98.845664    85.793506    86.584066     640.6599  0.085358418 
    9640    734685.43    301.51649   -570.38679    98.867723    85.760089    86.648624    570.38679  0.085600631 
    9660    734688.51    299.48032   -697.62319    98.889782    85.723049    86.667091    697.62319  0.085842845 
    9680    734954.39    299.62891   -548.07106    98.911841    85.752483    86.649368    548.07106  0.086085058 
    9700    735200.37    299.44641   -535.61374      98.9339    85.751648    86.659887    535.61374  0.086327272 
    9720    735040.19    299.27101   -616.48187    98.955958    85.736918    86.636574    616.48187  0.086569485 
    9740    735253.92    300.07441   -548.06859    98.978017    85.707568    86.672121    548.06859  0.086811699 
    9760    734974.25    299.65855   -564.09079    99.000076     85.72714    86.600073    564.09079  0.087053912 
    9780    735012.02    298.25367   -355.90121    99.022135    85.753545     86.55857    355.90121  0.087296125 
    9800    735236.21    299.74348   -308.29248    99.044194    85.831458    86.487108    308.29248  0.087538339 
    9820    735210.66    300.30015   -97.218258    99.066253    85.811398    86.485059    97.218258  0.087780552 
    9840    735361.69    301.12406    -234.5474    99.088311    85.830101    86.464722     234.5474  0.088022766 
    9860    735309.26     298.8964   -688.21746     99.11037    85.837958    86.431403    688.21746  0.088264979 
    9880    735309.31    298.07414   -852.54667    99.132429    85.888396     86.36143    852.54667  0.088507193 
    9900    735208.19    299.72744   -914.03886    99.154488    85.877895      86.3409    914.03886  0.088749406 
    9920    735567.27    298.42961   -915.23816    99.176547    85.871911    86.369874    915.23816   0.08899162 
    9940     735759.6     297.7126   -965.64102    99.198606    85.841879    86.403465    965.64102  0.089233833 
    9960    734788.98    298.05286   -447.53296    99.220664    85.793292    86.319154    447.53296  0.089476046 
    9980    734482.67    299.69521   -103.99792    99.242723    85.753613    86.303907    103.99792   0.08971826 
   10000    735123.01    298.94789   -349.41996    99.264782    85.744689    86.368941    349.41996  0.089960473 
   10020    736071.72    297.40891   -398.13529    99.286841    85.799661    86.405794    398.13529  0.090202687 
   10040    736298.73    298.84052   -521.50327      99.3089    85.807163    86.405689    521.50327    0.0904449 
   10060    736305.28    299.65667   -569.25027    99.330959    85.768044     86.42667    569.25027  0.090687114 
   10080    736091.22    300.35536   -493.55287    99.353017    85.750235    86.400302    493.55287  0.090929327 
   10100    735961.87    298.55545   -762.26431    99.375076    85.798555    86.317303    762.26431   0.09117154 
   10120    736212.45    299.95912   -633.51648    99.397135     85.81651    86.309469    633.51648  0.091413754 
   10140    736578.65    301.25769   -1002.1049    99.419194    85.799579    86.350276    1002.1049  0.091655967 
   10160    736313.36    300.63781   -561.98384    99.441253     85.78921    86.310458    561.98384  0.091898181 
   10180    736639.83    300.42109   -346.22303    99.463312     85.85616    86.262259    346.22303  0.092140394 
   10200    737038.57    299.12887   -791.51399    99.485371    85.859771    86.286185    791.51399  0.092382608 
   10220    737638.88    300.36077   -856.59474    99.507429    85.870305     86.32673    856.59474  0.092624821 
   10240    737615.28    300.02358   -584.58085    99.529488    85.873418    86.301706    584.58085  0.092867035 
   10260     737308.1    299.96555    -298.3042    99.551547    85.896396     86.22358     298.3042  0.093109248 
   10280    737486.14    300.09021    -492.3013    99.573606    85.876734    86.245036     492.3013  0.093351461 
   10300    737523.77    300.15883   -557.49212    99.595665    85.842778    86.264443    557.49212  0.093593675 
   10320    737385.45    300.03322   -428.99516    99.617724    85.779287     86.29299    428.99516  0.093835888 
   10340    737438.27    300.29607   -768.08954    99.639782    85.766936    86.292491    768.08954  0.094078102 
   10360    737595.83    299.83423    -857.4798    99.661841    85.713615    86.345505     857.4798  0.094320315 
   10380    737373.39     301.1086   -697.32723      99.6839    85.675845     86.33841    697.32723  0.094562529 
   10400    737456.34    300.54604   -646.82349    99.705959    85.617384    86.387965    646.82349  0.094804742 
   10420     737199.5    301.28082   -467.34966    99.728018     85.54895    86.407842    467.34966  0.095046955 
   10440     737131.9    299.82089   -587.16793    99.750077    85.506457     86.42374    587.16793  0.095289169 
   10460    737347.81    299.30143    -437.5414    99.772135     85.55544    86.380457     437.5414  0.095531382 
   10480    737750.25    300.62574   -511.65666    99.794194    85.608894    86.354545    511.65666  0.095773596 
   10500    737700.04     299.0455   -420.20692    99.816253    85.633088    86.305194    420.20692  0.096015809 
   10520    738361.02    297.96535    -516.4076    99.838312    85.675745    86.320439     516.4076  0.096258023 
   10540    738598.73    299.22578   -574.85377    99.860371    85.735019    86.269471    574.85377  0.096500236 
   10560    738491.11    298.68411   -574.87316     99.88243    85.731722    86.241167    574.87316   0.09674245 
   10580    738551.82    297.65408    -687.7488    99.904489    85.699523    86.261612     687.7488  0.096984663 
   10600    739432.96     298.0762   -999.12569    99.926547    85.712679    86.332209    999.12569  0.097226876 
   10620    740106.97    300.42246   -802.78411    99.948606    85.786936    86.317052    802.78411   0.09746909 
   10640    739848.61    299.27039   -556.53484    99.970665    85.787139    86.267676    556.53484  0.097711303 
   10660    739737.88    299.63398   -418.09921    99.992724    85.815848    86.206886    418.09921  0.097953517 
   10680    740181.98    299.48092   -371.87177    100.01478     85.80962    86.245875    371.87177   0.09819573 
   10700    740064.67    299.46242   -434.91669    100.03684    85.853115    86.169513    434.91669  0.098437944 
   10720    739844.26    298.53694   -534.16908     100.0589    85.888388    86.089488    534.16908  0.098680157 
   10740    739656.23    299.38814   -494.48848    100.08096    85.869888    86.067177    494.48848  0.098922371 
   10760    739684.08    300.16179   -663.74499    100.10302    85.840554    86.080858    663.74499  0.099164584 
   10780    739892.98    299.29133   -637.99918    100.12508    85.876502    86.050163    637.99918  0.099406797 
   10800    739610.24    300.43293    -458.0702    100.14714    85.830249    86.044677     458.0702  0.099649011 
   10820    739820.94    299.81014   -653.65538    100.16919    85.822125    86.058381    653.65538  0.099891224 
   10840    740071.84    300.59335   -827.80794    100.19125    85.839964    86.050727    827.80794   0.10013344 
   10860    739808.37    300.85466   -922.62142    100.21331    85.820325    86.020838    922.62142   0.10037565 
   10880    739624.83    300.85094   -489.88713    100.23537    85.742568    86.058544    489.88713   0.10061786 
   10900    739810.18    301.58024   -700.77824    100.25743    85.726657    86.077144    700.77824   0.10086008 
   10920    740015.15    301.09353   -879.52775    100.27949    85.726681    86.082028    879.52775   0.10110229 
   10940    740166.37    300.19354    -438.0783    100.30155    85.723918    86.083458     438.0783    0.1013445 
   10960    740491.63    300.19435   -507.94128    100.32361    85.674898    86.151614    507.94128   0.10158672 
   10980    741075.61    299.61949   -635.94795    100.34567     85.69917     86.17619    635.94795   0.10182893 
   11000    740709.56    299.56726   -364.97866    100.36772    85.649868    86.164263    364.97866   0.10207115 
   11020    740387.99    300.18707   -359.29975    100.38978    85.647324    86.110489    359.29975   0.10231336 
   11040    741210.88    299.82152   -701.72856    100.41184    85.661508    86.172985    701.72856   0.10255557 
   11060    741047.69    299.73297   -708.20992     100.4339    85.635539    86.161211    708.20992   0.10279779 
   11080    740842.87    298.64841   -656.18831    100.45596    85.544858     86.20977    656.18831      0.10304 
   11100    740940.71    298.39603   -765.41599    100.47802     85.57749    86.169357    765.41599   0.10328221 
   11120    741209.76    298.66482   -821.19554    100.50008    85.619884    86.139054    821.19554   0.10352443 
   11140    741179.77    299.06483   -667.91093    100.52214    85.685498    86.050722    667.91093   0.10376664 
   11160    740861.56    300.41262   -554.83158    100.54419     85.61847     86.06223    554.83158   0.10400885 
   11180    741172.59    298.88061   -633.08261    100.56625    85.633312    86.064557    633.08261   0.10425107 
   11200       741321    298.77323   -478.35109    100.58831     85.61685    86.079461    478.35109   0.10449328 
   11220       741075    298.41309   -222.69833    100.61037      85.6036    86.045346    222.69833   0.10473549 
   11240    740948.03    298.16059    -614.1842    100.63243    85.567177    86.048357     614.1842   0.10497771 
   11260    740688.32    297.64912   -565.27252    100.65449    85.550375    86.016235    565.27252   0.10521992 
   11280    740650.68    297.17439   -222.69879    100.67655    85.506394     86.03725    222.69879   0.10546213 
   11300    741520.33    298.88756   -827.72262    100.69861    85.579887    86.045446    827.72262   0.10570435 
   11320     740618.5    297.65122   -641.91543    100.72067    85.542527    85.959503    641.91543   0.10594656 
   11340    740121.25    298.33377   -649.85809    100.74272    85.487135    85.938629    649.85809   0.10618877 
   11360    740815.15    298.65032   -793.48027    100.76478     85.51282    85.974539    793.48027   0.10643099 
   11380    741285.54    299.92196   -716.55498    100.78684    85.586611    85.936143    716.55498    0.1066732 
   11400    741396.66    298.61976   -639.56446     100.8089    85.594595    85.922203    639.56446   0.10691541 
   11420    741175.35     298.5798   -543.07939    100.83096    85.555603    85.916903    543.07939   0.10715763 
   11440    741682.93    300.23306   -627.96621    100.85302     85.55869    85.953835    627.96621   0.10739984 
   11460    741600.07    299.01944   -435.75863    100.87508    85.539503    85.944712    435.75863   0.10764205 
   11480    741727.61    299.96414   -353.57765    100.89714    85.535001    85.945222    353.57765   0.10788427 
   11500    741716.04    299.91231     -422.642     100.9192    85.477694    85.982703      422.642   0.10812648 
   11520    741436.09    299.41759   -220.13917    100.94125    85.419863    85.989645    220.13917   0.10836869 
   11540    742186.33    300.86478   -474.45725    100.96331    85.447258    86.030258    474.45725   0.10861091 
   11560    743109.37     300.2688   -952.90933    100.98537    85.453514    86.112133    952.90933   0.10885312 
   11580    742910.58    299.74952   -696.53846    101.00743    85.358544    86.166057    696.53846   0.10909533 
   11600    743280.57    299.36311   -680.93132    101.02949    85.401838    86.146454    680.93132   0.10933755 
   11620    743732.99    299.79241   -1004.3904    101.05155    85.492321    86.088862    1004.3904   0.10957976 
   11640    743930.38    300.75404   -1015.8263    101.07361    85.561576    86.023232    1015.8263   0.10982198 
   11660    743881.37    300.96807   -645.25567    101.09567    85.544287    86.016176    645.25567   0.11006419 
   11680    744140.88    300.67304   -511.01937    101.11772    85.545333    86.026361    511.01937    0.1103064 
   11700     744042.5    301.33724   -203.07501    101.13978    85.538222    86.003377    203.07501   0.11054862 
   11720    743591.77    300.73591    32.954775    101.16184    85.520667    85.950175   -32.954775   0.11079083 
   11740    744336.57    299.98472   -130.96263     101.1839    85.511572    86.026657    130.96263   0.11103304 
   11760    744831.91    300.11504   -500.04146    101.20596    85.507424    86.069317    500.04146   0.11127526 
   11780    745072.12    299.81704   -445.71294    101.22802    85.483358    86.102548    445.71294   0.11151747 
   11800    745170.42    300.41516    -530.5317    101.25008    85.475043    86.103522     530.5317   0.11175968 
   11820    745361.93    299.99038   -916.12146    101.27214    85.437516    86.144712    916.12146    0.1120019 
   11840    745095.39    299.16449   -615.22662     101.2942    85.435444    86.097242    615.22662   0.11224411 
   11860     745371.1    299.50644   -689.79462    101.31625    85.441462    86.104283    689.79462   0.11248632 
   11880    745570.29     298.4899   -647.61109    101.33831    85.468227     86.08158    647.61109   0.11272854 
   11900    744894.44    298.98263   -665.71103    101.36037    85.414274    86.039144    665.71103   0.11297075 
   11920    744897.78     299.1472   -619.30478    101.38243    85.441363    85.993536    619.30478   0.11321296 
   11940    745154.52    298.06806   -719.97842    101.40449    85.433824    86.012053    719.97842   0.11345518 
   11960    743945.35    298.35928   -275.76844    101.42655    85.360872    85.927177    275.76844   0.11369739 
   11980    743733.72    299.25396   -328.94284    101.44861    85.329529    85.915601    328.94284    0.1139396 
   12000    743843.74    298.88187   -559.12236    101.47067    85.349368    85.889661    559.12236   0.11418182 
   12020    743794.71    300.67612   -703.87194    101.49273    85.337465     85.87731    703.87194   0.11442403 
   12040    743350.53    299.39959   -343.35283    101.51478    85.299406    85.845662    343.35283   0.11466624 
   12060    744207.34     300.3997   -563.48069    101.53684    85.374853    85.850006    563.48069   0.11490846 
   12080    744974.78    299.65684   -466.36704     101.5589    85.474338    85.819866    466.36704   0.11515067 
   12100    744779.73    299.89415   -841.28136    101.58096    85.443337    85.809888    841.28136   0.11539288 
   12120    744857.99     302.1154   -752.22137    101.60302    85.436227    85.807413    752.22137    0.1156351 
   12140    744853.49    299.45747   -938.76151    101.62508    85.388164    85.836557    938.76151   0.11587731 
   12160    744696.21    300.07302   -724.20823    101.64714    85.398815    85.789107    724.20823   0.11611952 
   12180    744764.06    301.29469   -262.63134     101.6692    85.395203    85.781937    262.63134   0.11636174 
   12200    744830.67    299.51809   -548.98073    101.69125    85.411145    85.754989    548.98073   0.11660395 
   12220    744771.75    299.55938   -523.94584    101.71331    85.352513    85.788501    523.94584   0.11684616 
   12240    744795.39    300.21353   -334.27818    101.73537    85.383603    85.741391    334.27818   0.11708838 
   12260    745572.96    300.70061   -507.37653    101.75743    85.439806    85.755851    507.37653   0.11733059 
   12280    746028.13    300.64892    -519.9062    101.77949    85.479417    85.749852     519.9062   0.11757281 
   12300    745309.85    300.55328   -709.58167    101.80155    85.420081    85.708224    709.58167   0.11781502 
   12320    745324.36    299.47803   -956.23706    101.82361    85.424645    85.686747    956.23706   0.11805723 
   12340    745490.26    299.36952   -981.67105    101.84567    85.428936    85.682953    981.67105   0.11829945 
   12360    745970.24    299.68431   -930.76535    101.86773    85.440487    85.707964    930.76535   0.11854166 
   12380    746040.27    300.13801   -773.49564    101.88978    85.456019    85.681876    773.49564   0.11878387 
   12400    745889.75    299.95302   -568.93675    101.91184    85.429347    85.672788    568.93675   0.11902609 
   12420    745657.17    300.20848   -483.39368     101.9339    85.411868    85.645063    483.39368    0.1192683 
   12440    745523.67    299.76438   -588.39783    101.95596    85.423709    85.599336    588.39783   0.11951051 
   12460    745410.31    299.20161   -590.62572    101.97802    85.438688    85.552805    590.62572   0.11975273 
   12480    745404.11    299.25974   -317.59421    102.00008    85.420924    85.551379    317.59421   0.11999494 
   12500    745912.53    299.90278   -292.72799    102.02214    85.448629    85.563469    292.72799   0.12023715 
   12520    746578.32    299.56043   -732.34331     102.0442     85.43784    85.632142    732.34331   0.12047937 
   12540    746312.44    299.87992   -558.81187    102.06625    85.451629    85.569334    558.81187   0.12072158 
   12560    746248.62    299.34544   -534.92499    102.08831    85.475004    85.520135    534.92499   0.12096379 
   12580    747050.47    300.81895   -594.04722    102.11037    85.489213    85.579307    594.04722   0.12120601 
   12600    747635.28    299.59661    -399.8945    102.13243     85.48046     85.63657     399.8945   0.12144822 
   12620    747743.26    300.88036   -634.94704    102.15449    85.490284    85.620603    634.94704   0.12169043 
   12640    747772.62    300.87209   -488.05895    102.17655     85.46008    85.635736    488.05895   0.12193265 
   12660    748303.04    301.14834   -672.19153    102.19861    85.479649    85.658368    672.19153   0.12217486 
   12680    748099.16    300.92037   -339.70334    102.22067    85.453233    85.643017    339.70334   0.12241707 
   12700    748063.09    302.07248   -151.46558    102.24273    85.454893    85.618748    151.46558   0.12265929 
   12720    747754.17    301.49474   -117.82718    102.26478    85.420508    85.599374    117.82718    0.1229015 
   12740    748216.02     300.4242   -520.67807    102.28684    85.355772     85.69872    520.67807   0.12314371 
   12760    748423.91    300.03151   -800.00145     102.3089    85.376498    85.683243    800.00145   0.12338593 
   12780    748113.86    301.18137   -729.58971    102.33096    85.371696      85.6341    729.58971   0.12362814 
   12800    748027.45    301.19443   -875.36733    102.35302    85.368538    85.608922    875.36733   0.12387035 
   12820    748240.83     300.4627   -933.15919    102.37508    85.307583    85.676066    933.15919   0.12411257 
   12840    748774.12    298.87068   -1044.5474    102.39714    85.300507     85.72577    1044.5474   0.12435478 
   12860    749239.27    299.41605   -1250.0357     102.4192    85.322054    85.738892    1250.0357   0.12459699 
   12880    748879.45    299.20369   -686.32157    102.44126    85.357526    85.643657    686.32157   0.12483921 
   12900    748378.42    300.17556   -503.49278    102.46331    85.339165    85.586342    503.49278   0.12508142 
   12920    748036.68     300.1026   -226.79123    102.48537    85.325499    85.542546    226.79123   0.12532364 
   12940    748149.15     300.8137    15.188399    102.50743    85.305384    85.557166   -15.188399   0.12556585 
   12960    748985.69     299.4835   -624.06257    102.52949    85.342294    85.597368    624.06257   0.12580806 
   12980    749180.47    299.35976   -613.11433    102.55155    85.367139    85.576298    613.11433   0.12605028 
   13000    748604.79    300.14766   -394.80636    102.57361    85.311514    85.547893    394.80636   0.12629249 
   13020    748128.72    298.80126   -374.81974    102.59567    85.254157    85.532614    374.81974    0.1265347 
[...]
   76740    1211282.3    299.63008   -84.587132    172.87513     82.96443    84.454135    84.587132   0.89822672 
   76760    1211555.3     300.7653    35.151405    172.89719    82.988648     84.43774   -35.151405   0.89846893 
   76780    1210961.2    300.92501    70.215076    172.91925    83.011135    84.362709   -70.215076   0.89871114 
   76800      1210920    299.93103   -129.25467    172.94131    83.007642    84.352634    129.25467   0.89895336 
   76820    1212101.3    299.42593   -74.894828    172.96337    83.040701    84.390544    74.894828   0.89919557 
   76840    1212950.9    299.77209    2.7086799    172.98543    83.068012    84.411165   -2.7086799   0.89943778 
   76860    1212657.5    298.97138    7.8295599    173.00749    83.042514    84.405892   -7.8295599      0.89968 
   76880    1212695.2     300.1838     108.6113    173.02954    83.047982    84.392202    -108.6113   0.89992221 
   76900    1212775.6    299.49574   -8.5498817     173.0516    83.060806    84.374006    8.5498817   0.90016443 
   76920    1213528.3    301.07111   -63.724772    173.07366    83.077743    84.398402    63.724772   0.90040664 
   76940    1214122.4    301.44378   -152.74222    173.09572    83.073822    84.432949    152.74222   0.90064885 
   76960    1214513.1    301.13454   -64.365629    173.11778    83.077705    84.445411    64.365629   0.90089107 
   76980      1214122    300.80233   -209.99415    173.13984    83.070656    84.414623    209.99415   0.90113328 
   77000    1214457.5     301.9714   -304.10009     173.1619    83.141973    84.354773    304.10009   0.90137549 
   77020    1214532.6    301.52739    -420.3055    173.18396    83.185977    84.304626     420.3055   0.90161771 
   77040    1213937.1    300.21945   -262.97707    173.20602    83.153038    84.285934    262.97707   0.90185992 
   77060    1214176.2    301.99609   -134.01791    173.22807    83.113214    84.332187    134.01791   0.90210213 
   77080    1213997.9     299.5646    20.358638    173.25013    83.100937     84.32152   -20.358638   0.90234435 
   77100    1213779.9    301.45704    156.11244    173.27219    83.120014      84.2763   -156.11244   0.90258656 
   77120    1212922.6    300.58927    266.80594    173.29425    83.077337    84.249309   -266.80594   0.90282877 
   77140    1213208.7     300.1297     330.9131    173.31631    83.085889    84.249786    -330.9131   0.90307099 
   77160    1214507.3     299.7234     290.5521    173.33837    83.070341     84.34502    -290.5521    0.9033132 
   77180    1215177.3    299.68723    193.27009    173.36043    83.106502    84.344094   -193.27009   0.90355541 
   77200    1215387.6    299.90843    46.812954    173.38249    83.133567    84.320497   -46.812954   0.90379763 
   77220    1215084.4     299.8218    34.076833    173.40454    83.139423    84.282802   -34.076833   0.90403984 
   77240    1215514.7    299.35957    -196.4447     173.4266    83.189256    84.251427     196.4447   0.90428205 
   77260    1216709.8    298.43503   -241.25658    173.44866    83.253434    84.258533    241.25658   0.90452427 
   77280    1216830.8    299.45899   -183.01598    173.47072    83.307879    84.201135    183.01598   0.90476648 
   77300    1216379.8     300.0225   -226.34504    173.49278    83.325529    84.141396    226.34504   0.90500869 
   77320      1216400     299.3164   -122.70663    173.51484    83.338892     84.11861    122.70663   0.90525091 
   77340    1216661.4    299.23065   -164.07513     173.5369    83.294777    84.170547    164.07513   0.90549312 
   77360    1217174.1    299.50281    18.800562    173.55896    83.301542    84.188476   -18.800562   0.90573533 
   77380    1217495.3    299.64263    103.19102    173.58102    83.293808    84.207807   -103.19102   0.90597755 
   77400    1217508.5    301.11898    65.094561    173.60307    83.312469    84.179157   -65.094561   0.90621976 
   77420    1217316.1    300.09155    22.503758    173.62513    83.276808    84.191201   -22.503758   0.90646197 
   77440    1217771.2    300.63674    69.314945    173.64719    83.249502      84.2396   -69.314945   0.90670419 
   77460    1217572.9    300.33758    85.110904    173.66925    83.235278    84.229574   -85.110904    0.9069464 
   77480      1217781    301.73347    19.556703    173.69131    83.271894    84.196233   -19.556703   0.90718861 
   77500    1217032.8    300.70242   -108.34059    173.71337     83.26017    84.145662    108.34059   0.90743083 
   77520    1217149.7    300.31705   -30.124665    173.73543    83.229493    84.174079    30.124665   0.90767304 
   77540    1217480.2    300.75432   -157.28509    173.75749    83.177323    84.239048    157.28509   0.90791526 
   77560    1217987.3    301.65751   -224.03977    173.77955    83.166325    84.274581    224.03977   0.90815747 
   77580    1218924.5    301.84369   -162.72801     173.8016    83.268187    84.225558    162.72801   0.90839968 
   77600    1219335.4     303.0809   -164.52788    173.82366    83.300614    84.210467    164.52788    0.9086419 
   77620    1219662.2    300.94204   -182.54887    173.84572    83.267356    84.255988    182.54887   0.90888411 
   77640    1220577.7    302.75573   -145.41633    173.86778     83.25655    84.319477    145.41633   0.90912632 
   77660    1221197.9    302.50037   -117.02214    173.88984    83.280771    84.327091    117.02214   0.90936854 
   77680    1221232.6    301.07211   -31.712866     173.9119    83.328859    84.270128    31.712866   0.90961075 
   77700    1221306.8    299.47768    115.45032    173.93396    83.360058    84.233024   -115.45032   0.90985296 
   77720    1221034.4    300.44792    167.87437    173.95602    83.331594    84.232316   -167.87437   0.91009518 
   77740    1221305.7    301.41338     18.32542    173.97807    83.313089    84.259061    -18.32542   0.91033739 
   77760    1221640.9    300.41659   -13.393284    174.00013    83.324317    84.260147    13.393284    0.9105796 
   77780    1221287.6    299.16938    39.369055    174.02219    83.319421     84.23005   -39.369055   0.91082182 
   77800    1220853.4    299.79329   -42.094489    174.04425    83.292771    84.216371    42.094489   0.91106403 
   77820    1220812.9     300.4036   -72.429835    174.06631    83.324295    84.171047    72.429835   0.91130624 
   77840    1220159.3    300.93617   -402.36784    174.08837    83.302556    84.137279    402.36784   0.91154846 
   77860    1219789.8    300.52118   -443.40859    174.11043    83.295046     84.10872    443.40859   0.91179067 
   77880    1220702.7    298.05543   -507.03747    174.13249    83.332995    84.122681    507.03747   0.91203288 
   77900    1220196.3    299.31902   -381.19764    174.15455    83.376402    84.033363    381.19764    0.9122751 
   77920    1219373.9    299.48473    17.632332     174.1766     83.32049    84.022437   -17.632332   0.91251731 
   77940    1220276.6    300.62673      20.9167    174.19866     83.34643    84.047822     -20.9167   0.91275952 
   77960    1221925.5    299.65008    69.704079    174.22072     83.37653    84.120354   -69.704079   0.91300174 
   77980    1221572.3    299.46685     319.1273    174.24278    83.373537    84.088413    -319.1273   0.91324395 
   78000      1221631    299.43802    288.84495    174.26484    83.334571    84.121123   -288.84495   0.91348616 
   78020    1221117.3    299.54176    227.05119     174.2869    83.330456    84.079259   -227.05119   0.91372838 
   78040    1220915.1    299.29053    91.537853    174.30896    83.319974    84.065274   -91.537853   0.91397059 
   78060    1222201.5    300.85591   -144.48395    174.33102     83.36731    84.095424    144.48395    0.9142128 
   78080    1222476.7    299.70696   -231.04041    174.35308     83.33316    84.138185    231.04041   0.91445502 
   78100    1222089.7    299.82012   -177.81197    174.37513     83.34843      84.0855    177.81197   0.91469723 
   78120    1222211.7     298.9998   -136.92972    174.39719    83.329919    84.101937    136.92972   0.91493944 
   78140    1222510.1    300.51219   -122.31154    174.41925    83.361173    84.080294    122.31154   0.91518166 
   78160    1222915.7    300.85774   -82.345514    174.44131    83.372762    84.085862    82.345514   0.91542387 
   78180    1223321.9    301.20718   -164.54763    174.46337     83.39619    84.079532    164.54763   0.91566609 
   78200    1222389.8     300.8784   -59.748424    174.48543    83.301958    84.099877    59.748424    0.9159083 
   78220    1223088.5    301.25364    -20.79224    174.50749    83.354779     84.08399     20.79224   0.91615051 
   78240    1223882.3    299.08538   -52.070848    174.52955    83.359763      84.1229    52.070848   0.91639273 
   78260    1225210.5    301.54752    127.03631     174.5516    83.417375     84.14539   -127.03631   0.91663494 
   78280    1225943.8    300.69799   -21.504611    174.57366    83.431943    84.170418    21.504611   0.91687715 
   78300    1227335.7    301.37503   -328.13713    174.59572    83.528064    84.158377    328.13713   0.91711937 
   78320    1228260.4    301.18013   -261.18587    174.61778    83.514502    84.224817    261.18587   0.91736158 
   78340    1229070.9    301.06355   -339.19574    174.63984    83.558125    84.225757    339.19574   0.91760379 
   78360    1229111.8    300.82908   -205.94226     174.6619    83.585475    84.190365    205.94226   0.91784601 
   78380      1227889    299.59388    -218.1601    174.68396    83.548351    84.133352     218.1601   0.91808822 
   78400    1227216.2    300.38935   -144.06777    174.70602    83.468538    84.157031    144.06777   0.91833043 
   78420    1228056.5     300.3329   -59.014163    174.72808    83.416428    84.256623    59.014163   0.91857265 
   78440    1227126.4    300.15794   -34.732803    174.75013    83.358541    84.240646    34.732803   0.91881486 
   78460    1225030.5    298.96908    158.93389    174.77219    83.280033    84.165413   -158.93389   0.91905707 
   78480    1224807.1    299.84798    100.58975    174.79425    83.254166    84.165588   -100.58975   0.91929929 
   78500    1224771.5    299.89003    113.91483    174.81631    83.246062    84.160716   -113.91483    0.9195415 
   78520    1224649.8    299.41197    68.333412    174.83837    83.289077    84.098279   -68.333412   0.91978371 
   78540    1224830.2    299.61466   -289.55505    174.86043    83.280198    84.109024    289.55505   0.92002593 
   78560    1224974.1    299.00271   -252.11995    174.88249    83.237688    84.151254    252.11995   0.92026814 
   78580    1224305.7    299.57847   -227.61016    174.90455    83.212994    84.119686    227.61016   0.92051035 
   78600    1224744.9    300.11429   -161.68971     174.9266     83.25848    84.093281    161.68971   0.92075257 
   78620    1225115.8    300.60355   -172.19997    174.94866    83.256439    84.110203    172.19997   0.92099478 
   78640    1224285.3    300.03829      59.1831    174.97072    83.226405    84.072914     -59.1831   0.92123699 
   78660    1223869.2    297.91846    85.961425    174.99278    83.223978    84.036196   -85.961425   0.92147921 
   78680    1224895.7     300.2999   -83.038311    175.01484    83.283205    84.036274    83.038311   0.92172142 
   78700    1224275.2    300.18887    122.99693     175.0369     83.24636    84.020296   -122.99693   0.92196363 
   78720    1223465.9    300.11961    197.68635    175.05896    83.169881    84.031368   -197.68635   0.92220585 
   78740    1225141.3    300.38004    121.97115    175.08102    83.242129    84.062817   -121.97115   0.92244806 
   78760    1225645.6     300.5867     190.3571    175.10308    83.243161     84.08578    -190.3571   0.92269027 
   78780    1225004.5    300.26256    25.731733    175.12513    83.168521     84.10663   -25.731733   0.92293249 
   78800    1225721.7    300.83202   -68.775005    175.14719    83.173325    84.140413    68.775005    0.9231747 
   78820    1226268.4    300.31174   -366.30759    175.16925    83.181588    84.158977    366.30759   0.92341692 
   78840    1225677.7    300.07741   -235.84269    175.19131    83.164021    84.125617    235.84269   0.92365913 
   78860    1226179.6      299.853   -145.68212    175.21337    83.232173    84.080565    145.68212   0.92390134 
   78880    1226206.1    302.12062   -401.84924    175.23543    83.256047    84.047689    401.84924   0.92414356 
   78900    1224956.1     301.3289   -24.219383    175.25749     83.22252     83.98526    24.219383   0.92438577 
   78920    1224795.4    302.65518    163.68518    175.27955    83.234476    83.951618   -163.68518   0.92462798 
   78940    1226308.1    301.73768    129.80835    175.30161    83.279576    83.999207   -129.80835    0.9248702 
   78960    1228229.8    300.74111    50.692994    175.32366    83.333767    84.065556   -50.692994   0.92511241 
   78980    1228944.1    301.54443   -85.632763    175.34572    83.358656    84.078749    85.632763   0.92535462 
   79000    1229146.3     300.9507    23.415626    175.36778    83.364379    84.076233   -23.415626   0.92559684 
   79020    1228888.6     300.7956   -95.009429    175.38984    83.314795    84.098055    95.009429   0.92583905 
   79040    1229722.6    299.80345   -127.10699     175.4119    83.319527    84.139771    127.10699   0.92608126 
   79060    1230684.9     299.5386   -354.71855    175.43396    83.349334    84.164915    354.71855   0.92632348 
   79080    1229984.2    299.53221   -532.28035    175.45602    83.318697    84.137342    532.28035   0.92656569 
   79100    1228519.3    299.48181   -166.06451    175.47808     83.25168    84.094213    166.06451    0.9268079 
   79120    1230328.5    300.10272   -39.130284    175.50013    83.372123    84.085818    39.130284   0.92705012 
   79140    1231278.2    299.25027    244.49502    175.52219     83.42782    84.083979   -244.49502   0.92729233 
   79160    1231210.7    300.71363    400.95574    175.54425    83.448483    84.047986   -400.95574   0.92753454 
   79180    1231851.2     299.9095    355.19326    175.56631     83.45366     84.07593   -355.19326   0.92777676 
   79200    1233252.2     299.1208     162.1629    175.58837    83.523456    84.090649    -162.1629   0.92801897 
   79220    1233405.1    299.05457    134.98228    175.61043    83.478139    84.136161   -134.98228   0.92826118 
   79240    1233232.4    300.33307    75.184193    175.63249    83.480748    84.111181   -75.184193    0.9285034 
   79260    1233789.8    301.12286    -114.0398    175.65455    83.460358    84.159186     114.0398   0.92874561 
   79280    1233870.9    299.43145   -228.34877    175.67661    83.494412    84.119831    228.34877   0.92898782 
   79300    1233272.4    299.82373   -259.27987    175.69866    83.456644    84.106515    259.27987   0.92923004 
   79320      1233789    299.24817   -284.85338    175.72072    83.496152    84.091376    284.85338   0.92947225 
   79340    1233476.5    299.31251   -160.89507    175.74278     83.45727    84.098687    160.89507   0.92971446 
   79360    1232790.6    301.42808    -208.8363    175.76484    83.444319    84.054414     208.8363   0.92995668 
   79380    1232786.7    300.86755    74.185736     175.7869    83.438315    84.049649   -74.185736   0.93019889 
   79400    1232748.3    300.08636    58.559581    175.80896    83.468919    84.005674   -58.559581    0.9304411 
   79420    1232092.3    300.14538    101.72971    175.83102    83.407768     84.01199   -101.72971   0.93068332 
   79440    1231813.2    300.73769    303.97133    175.85308    83.370151    84.020314   -303.97133   0.93092553 
   79460    1232341.2    300.85938    273.65787    175.87514    83.333154    84.083097   -273.65787   0.93116775 
   79480    1233292.2    301.20408    144.47126    175.89719    83.347859    84.122587   -144.47126   0.93140996 
   79500    1233407.8    300.31131    29.480356    175.91925    83.330241    84.137712   -29.480356   0.93165217 
   79520    1233539.6    300.43788    -234.8608    175.94131    83.322542    84.143926     234.8608   0.93189439 
   79540    1233735.4    301.12069   -122.11934    175.96337    83.295753    84.173792    122.11934    0.9321366 
   79560    1233694.8    301.25099   -114.12374    175.98543    83.222829    84.234216    114.12374   0.93237881 
   79580    1233857.5    301.32836   -181.91207    176.00749    83.221363    84.236251    181.91207   0.93262103 
   79600    1234796.4    302.01539   -188.95841    176.02955    83.259542    84.251138    188.95841   0.93286324 
   79620    1235148.7     302.5857   -307.20052    176.05161    83.293316    84.230447    307.20052   0.93310545 
   79640    1235984.1    300.10263   -106.40556    176.07366    83.303883    84.266168    106.40556   0.93334767 
   79660    1236045.6    300.28224    8.9321019    176.09572    83.342213    84.221048   -8.9321019   0.93358988 
   79680    1236035.2    300.50822    14.728989    176.11778    83.330835    84.221293   -14.728989   0.93383209 
   79700    1235409.8    300.84306    198.52971    176.13984    83.341528    84.157338   -198.52971   0.93407431 
   79720      1235023    300.82981    10.200655     176.1619    83.329299    84.132796   -10.200655   0.93431652 
   79740    1234382.5    300.13821   -69.330358    176.18396    83.347659    84.060115    69.330358   0.93455873 
   79760    1233392.1    300.77024    122.20494    176.20602    83.258923    84.071664   -122.20494   0.93480095 
   79780    1233003.1    300.57994  -0.56430012    176.22808    83.218969    84.074972   0.56430012   0.93504316 
   79800    1234190.1    298.91709   -62.811622    176.25014    83.203137     84.16139    62.811622   0.93528537 
   79820    1234758.6    299.64568    -256.0319    176.27219    83.218854    84.173717     256.0319   0.93552759 
   79840    1234973.2     299.0704   -260.66312    176.29425    83.208406    84.188383    260.66312    0.9357698 
   79860    1235741.6    299.42435   -58.143906    176.31631    83.214684    84.223874    58.143906   0.93601201 
   79880    1236176.5    299.92069   -48.602073    176.33837     83.18915     84.26883    48.602073   0.93625423 
   79900    1236970.4    300.35149    172.55287    176.36043    83.252942    84.247799   -172.55287   0.93649644 
   79920    1238275.6    301.44724    89.316622    176.38249    83.257657    84.321374   -89.316622   0.93673865 
   79940    1238491.8    299.38926     24.65139    176.40455    83.263802    84.319325    -24.65139   0.93698087 
   79960    1238096.4    299.81086    67.128279    176.42661    83.226945    84.319188   -67.128279   0.93722308 
   79980    1237729.6    300.15552     76.14287    176.44866     83.25465    84.255628    -76.14287   0.93746529 
   80000    1238231.5    299.66935    15.432444    176.47072     83.29359     84.23985   -15.432444   0.93770751 
Loop time of 5536.6 on 64 procs for 80000 steps with 64040 atoms

Performance: 1.248 ns/day, 19.224 hours/ns, 14.449 timesteps/s
99.7% CPU use with 64 MPI tasks x 1 OpenMP threads

MPI task timing breakdown:
Section |  min time  |  avg time  |  max time  |%varavg| %total
---------------------------------------------------------------
Pair    | 368.81     | 1373.6     | 2061.3     |1352.9 | 24.81
Bond    | 31.536     | 100.15     | 138.67     | 320.1 |  1.81
Kspace  | 296.39     | 1018.6     | 2093.4     |1672.6 | 18.40
Neigh   | 2825       | 2844.2     | 2870.6     |  22.9 | 51.37
Comm    | 113.34     | 148.42     | 171.05     | 123.6 |  2.68
Output  | 1.7512     | 1.784      | 1.8698     |   1.4 |  0.03
Modify  | 40.149     | 45.436     | 54.298     |  52.2 |  0.82
Other   |            | 4.484      |            |       |  0.08

Nlocal:        1000.62 ave        1823 max           0 min
Histogram: 14 1 0 2 5 9 9 5 3 16
Nghost:        9885.23 ave       17523 max        1088 min
Histogram: 14 2 0 0 2 27 3 0 0 16
Neighs:       693564.0 ave 1.45622e+06 max           0 min
Histogram: 16 0 2 7 7 10 3 3 6 10

Total # of neighbors = 44388072
Ave neighs/atom = 693.13042
Ave special neighs/atom = 5.8719550
Neighbor list builds = 80000
Dangerous builds not checked
Total wall time: 1:32:20
