LAMMPS (29 Oct 2020)
OMP_NUM_THREADS environment is not set. Defaulting to 1 thread. (../comm.cpp:94)
  using 1 OpenMP thread(s) per MPI task
####################################################
#    This program is free software: you can redistribute it and/or modify
#    it under the terms of the GNU General Public License as published by
#    the Free Software Foundation, either version 3 of the License, or
#    (at your option) any later version.
#
#    This program is distributed in the hope that it will be useful,
#    but WITHOUT ANY WARRANTY; without even the implied warranty of
#    MERCHANTABILITY or FITNESS FOR A PARTICULAR PURPOSE.  See the
#    GNU General Public License for more details.


units		real        ## defines the units style used herein. More information: https://docs.lammps.org/units.html
atom_style	full        ## defines the atom style used herein. More information: https://docs.lammps.org/atom_style.html

# Styles
pair_style      lj/cut/coul/long 15.0 10.0      ## sets the formula(s) LAMMPS uses to compute pairwise interactions; here, lennard-jones (LJ) with long-range Coulomb interaction. More: https://docs.lammps.org/pair_lj_cut_coul.html
pair_modify     shift no                        ## the shift keyword determines whether a Lennard-Jones potential is shifted at its cutoff to 0.0. More: https://docs.lammps.org/pair_modify.html
kspace_style    pppm 1.0e-4                     ## defines a long-range solver for LAMMPS to compute long-range Coulombic interactions. Note: requires use of a matching pair style, i.e. PPPM with coul/long. More: https://docs.lammps.org/kspace_style.html
bond_style      harmonic                        ## defined based off the forcefield used to construct the system; models the atoms' interactions
angle_style     harmonic
dihedral_style  opls
improper_style  cvff
special_bonds   lj 0 0 1 coul 0 0 1

read_data       300K_PS.lmps      ## input lammps datafile, equilibriated until structure nears experimental properties
Reading data file ...
  orthogonal box = (55.882319 55.882319 55.882319) to (144.11768 144.11768 144.11768)
  4 by 4 by 4 MPI processor grid
  reading atoms ...
  64040 atoms
  reading velocities ...
  64040 velocities
  scanning bonds ...
  2 = max bonds/atom
  scanning angles ...
  6 = max angles/atom
  scanning dihedrals ...
  12 = max dihedrals/atom
  scanning impropers ...
  3 = max impropers/atom
  reading bonds ...
  68020 bonds
  reading angles ...
  119880 angles
  reading dihedrals ...
  191660 dihedrals
  reading impropers ...
  51880 impropers
Finding 1-2 1-3 1-4 neighbors ...
  special bond factors lj:    0.0      0.0      1.0     
  special bond factors coul:  0.0      0.0      1.0     
     4 = max # of 1-2 neighbors
     8 = max # of 1-3 neighbors
    12 = max # of special neighbors
  special bonds CPU = 1.439 seconds
  read_data CPU = 3.194 seconds

dielectric      1.0
neighbor    	1.0 bin
neigh_modify	delay 0 every 1 check no        ## this is to make sure that the neighbor list is updated every timestep, and the atoms don't get lost as the system is being deformed ##

timestep	    1.0                             ## unit = fs, per "real" unit style
run_style       verlet                          ## defines algorithm used for simulation computation; verlet integration is a numerical method used to integrate Newton's equations of motion.

variable stress equal press*-1                         ## computes stress as the negative of press values
variable engStrain equal (lx-91.07191)/91.07191      ## computes engineering strain; lx_0 must be found and inputted manually (for now)

thermo		    20                                                               ## output log data (headers in thermo_style), recorded at every timestep in numList.txt
thermo_style    custom step vol temp press lx ly lz v_stress v_engStrain         ## data headers of output log file. More: https://docs.lammps.org/thermo_style.html

################# Deformation ##################

fix 1 all npt temp 300 300 100 y 1 1 100.0 z 1 1 100.0      ## stress normal to the x direction can vary; external pressure (y and z) = 1atm ##

fix 2 all deform 1 x scale 2.0 remap x                      ## sets a uniaxial (x-direction) deformation in motion, scaling a set amount (here, 4.0x) the initial length


################# Dumping ##################

reset_timestep 0

dump dump2 all custom 2000 sim.lammpstrj id mol type q xs ys zs ix iy iz

restart 4000 PS.restart

run 		40000              ## this depends on the overall strain rate, where strain rate = deformScale / runTimeSteps (consider units!)
PPPM initialization ...
WARNING: System is not charge neutral, net charge = -8.9366436e-05 (../kspace.cpp:313)
  using 12-bit tables for long-range coulomb (../kspace.cpp:328)
  G vector (1/distance) = 0.20517083
  grid = 24 24 24
  stencil order = 5
  estimated absolute RMS force accuracy = 0.022734637
  estimated relative force accuracy = 6.8464684e-05
  using double precision FFTW3
  3d grid and FFT values/proc = 1331 216
Neighbor list info ...
  update every 1 steps, delay 0 steps, check no
  max neighbors/atom: 2000, page size: 100000
  master list distance cutoff = 16
  ghost atom cutoff = 16
  binsize = 8, bins = 12 12 12
  1 neighbor lists, perpetual/occasional/extra = 1 0 0
  (1) pair lj/cut/coul/long, perpetual
      attributes: half, newton on
      pair build: half/bin/newton
      stencil: half/bin/3d/newton
      bin: standard
Per MPI rank memory allocation (min/avg/max) = 18.47 | 18.74 | 18.89 Mbytes
Step Volume Temp Press Lx Ly Lz v_stress v_engStrain 
       0    686954.56     301.6084    15618.815    88.235362    88.235362    88.235362   -15618.815 -0.031146246 
      20    692569.11    310.01539     3222.108     88.27948    88.542732     88.60341    -3222.108 -0.030661819 
      40    697544.86    307.32983     233.5405    88.323597     88.83882    88.898127    -233.5405 -0.030177392 
      60    695774.35    306.36715   -164.73549    88.367715    88.692274    88.774657    164.73549 -0.029692965 
      80    693933.74    304.03503   -165.33282    88.411833    88.533507    88.654327    165.33282 -0.029208538 
     100    693980.65    306.10457   -449.81242     88.45595    88.508714    88.640925    449.81242 -0.028724112 
     120    690734.93    305.26903   -593.30839    88.500068     88.28514    88.405687    593.30839 -0.028239685 
     140       691735    304.73586   -243.56928    88.544186     88.28674    88.487968    243.56928 -0.027755258 
     160    693352.22    303.52511    -1148.156    88.588303    88.376581    88.560555     1148.156 -0.027270831 
     180    693730.48    303.03587   -633.17194    88.632421    88.366337    88.575031    633.17194 -0.026786404 
     200    693026.84    304.26183    563.21926    88.676539    88.283423     88.52423   -563.21926 -0.026301977 
     220    694174.89    302.17969   -500.37975    88.720656    88.329486    88.580565    500.37975  -0.02581755 
     240    695811.24     302.0819    31.150959    88.764774    88.448138    88.626193   -31.150959 -0.025333123 
     260    694833.35    301.73975   -167.19244    88.808892    88.333263    88.572709    167.19244 -0.024848697 
     280    695568.16    302.35296    172.62799    88.853009    88.379467    88.576021   -172.62799  -0.02436427 
     300    696837.83    300.38566    159.12356    88.897127    88.454054    88.618879   -159.12356 -0.023879843 
     320    696774.29    299.52095   -154.24619    88.941245    88.421491    88.599461    154.24619 -0.023395416 
     340    696833.11    298.78153    434.27756    88.985362    88.387572    88.596997   -434.27756 -0.022910989 
     360    697648.84    301.36239   -734.54717     89.02948    88.437808    88.606396    734.54717 -0.022426562 
     380    698649.61    301.51182   -174.25162    89.073598    88.490721    88.636519    174.25162 -0.021942135 
     400    698634.87    299.49505   -463.40328    89.117716    88.452589    88.628962    463.40328 -0.021457708 
     420    698543.95    299.89379   -912.86352    89.161833    88.399356    88.626917    912.86352 -0.020973282 
     440       698459    299.02522    85.088963    89.205951    88.375446    88.596278   -85.088963 -0.020488855 
     460    698820.07     298.0649   -258.08572    89.250069    88.354549    88.619215    258.08572 -0.020004428 
     480    698861.94    299.94844    57.759319    89.294186    88.331121    88.604231   -57.759319 -0.019520001 
     500     698611.1     299.5735   -9.6657833    89.338304    88.299358    88.560535    9.6657833 -0.019035574 
     520    698716.28    299.49687    224.28955    89.382422    88.307199     88.52229   -224.28955 -0.018551147 
     540     698555.2    298.42769    96.341519    89.426539    88.289782    88.475671   -96.341519  -0.01806672 
     560    698685.89    297.76106   -236.35158    89.470657    88.238945    88.499546    236.35158 -0.017582293 
     580    698701.74    299.80405   -256.02645    89.514775    88.167641    88.529474    256.02645 -0.017097867 
     600       698026    300.80383   -634.20111    89.558892    88.079838    88.488407    634.20111  -0.01661344 
     620    698082.09    299.40832    -658.5657     89.60301    88.031101    88.500915     658.5657 -0.016129013 
     640     697733.3     299.1996    8.3624557    89.647128    87.947689    88.497019   -8.3624557 -0.015644586 
     660    698250.07    300.74491    28.666151    89.691245    87.982397     88.48408   -28.666151 -0.015160159 
     680     698420.3    300.19754   -191.48524    89.735363    87.965735    88.478895    191.48524 -0.014675732 
     700    698740.39    300.63976   -82.334127    89.779481    87.977318    88.464298    82.334127 -0.014191305 
     720     699336.3    300.77079    1.1804548    89.823598    88.022722    88.450609   -1.1804548 -0.013706878 
     740     699260.7     300.5806   -286.19004    89.867716    88.061175     88.35903    286.19004 -0.013222452 
     760    699212.35     299.7035   -137.72805    89.911834    88.021776    88.349095    137.72805 -0.012738025 
     780    699040.27    299.33264   -150.16004    89.955951    88.025948    88.279848    150.16004 -0.012253598 
     800    699536.12     300.2423   -445.35584    90.000069    88.026785    88.298324    445.35584 -0.011769171 
     820    700210.21    300.78572   -438.72725    90.044187    88.090049    88.276664    438.72725 -0.011284744 
     840    699692.75    299.96986   -420.10914    90.088304    88.030805    88.227563    420.10914 -0.010800317 
     860    700160.73    300.74698    10.770819    90.132422    87.991221    88.283057   -10.770819  -0.01031589 
     880    700508.28    299.95444   -780.30403     90.17654    88.036219    88.238542    780.30403 -0.0098314634 
     900     701040.6    299.63853   -498.25383    90.220658    88.089677    88.208851    498.25383 -0.0093470365 
     920    701095.99    300.99362    -508.2165    90.264775    88.051467    88.210967     508.2165 -0.0088626096 
     940     700755.5    300.64579   -509.91983    90.308893    88.011235    88.165339    509.91983 -0.0083781827 
     960    700952.07    300.02421   -68.613107    90.353011    88.073421     88.08477    68.613107 -0.0078937559 
     980     700662.9    299.88279   -248.98679    90.397128    87.995827    88.083063    248.98679 -0.007409329 
    1000    701405.62    299.46278   -55.914823    90.441246    88.062648    88.066547    55.914823 -0.0069249021 
    1020    701723.91    300.66813   -332.31635    90.485364    88.034048    88.092162    332.31635 -0.0064404752 
    1040    701964.38    299.13001    -165.7947    90.529481     88.04452    88.068928     165.7947 -0.0059560484 
    1060    702329.33    298.85049   -263.35495    90.573599    87.967509    88.148898    263.35495 -0.0054716215 
    1080    702102.12    299.41914   -677.58995    90.617717    87.964046    88.080946    677.58995 -0.0049871946 
    1100    702154.84     299.5083    50.519917    90.661834    87.946543    88.062218   -50.519917 -0.0045027677 
    1120    702380.32    300.39418   -441.66674    90.705952    87.991529    88.002637    441.66674 -0.0040183409 
    1140    702678.79    298.79743   -580.44097     90.75007    87.989283    87.999479    580.44097 -0.003533914 
    1160    702913.93    300.25729   -138.15538    90.794187     88.00527    87.970169    138.15538 -0.0030494871 
    1180    702584.65    298.44793   -694.23698    90.838305    87.941858    87.949626    694.23698 -0.0025650602 
    1200    703184.78    300.17931    111.11452    90.882423    87.958005    87.965868   -111.11452 -0.0020806333 
    1220    703454.35    298.19574   -94.823102     90.92654    87.952483    87.962416    94.823102 -0.0015962065 
    1240    703924.96    299.73554    61.724396    90.970658    87.955607    87.975451   -61.724396 -0.0011117796 
    1260    704238.94    298.99595    106.87806    91.014776    87.946093    87.981544   -106.87806 -0.00062735271 
    1280    704519.11    298.76636   -499.11722    91.058893    87.922663    87.997346    499.11722 -0.00014292584 
    1300    704592.01    299.84177    31.436642    91.103011    87.884001    88.002531   -31.436642 0.00034150104 
    1320    704780.78    299.48207   -660.86839    91.147129    87.904432    87.963052    660.86839 0.00082592792 
    1340    705179.78    299.71853   -556.58325    91.191247     87.90739     87.96731    556.58325 0.0013103548 
    1360    705319.81    300.46455   -881.05894    91.235364    87.910482     87.93914    881.05894 0.0017947817 
    1380    705548.24    300.02705   -949.15868    91.279482     87.91374    87.921844    949.15868 0.0022792085 
    1400    705542.09        301.2   -504.10159      91.3236    87.821653     87.97075    504.10159 0.0027636354 
    1420    704940.97    300.49727    -443.2113    91.367717    87.734171     87.94096     443.2113 0.0032480623 
    1440    706593.27    300.44861   -554.91025    91.411835    87.840199    87.998194    554.91025 0.0037324892 
    1460    707223.16    301.41223   -704.01395    91.455953    87.885586    87.988688    704.01395 0.0042169161 
    1480    707036.15    300.54973   -300.70697     91.50007    87.808811    87.999883    300.70697 0.0047013429 
    1500    706813.78    301.40079   -25.798058    91.544188    87.708411    88.030463    25.798058 0.0051857698 
    1520    707344.08    300.89148   -570.34547    91.588306    87.704959    88.057539    570.34547 0.0056701967 
    1540    707734.52    302.24027   -242.81309    91.632423    87.723818    88.044795    242.81309 0.0061546236 
    1560    707782.55    302.19405   -423.04498    91.676541    87.748685    87.983455    423.04498 0.0066390504 
    1580     708021.6    300.27022   -775.48395    91.720659    87.755056     87.96445    775.48395 0.0071234773 
    1600    707708.48    299.90297   -710.39194    91.764776    87.740826     87.89753    710.39194 0.0076079042 
    1620    707279.68    301.42074   -620.16213    91.808894    87.620248    87.922888    620.16213 0.0080923311 
    1640    708231.85    300.88429   -408.89007    91.853012    87.634922    87.984232    408.89007  0.008576758 
    1660    708137.79     300.9904   -449.95405    91.897129    87.620033    87.945255    449.95405 0.0090611848 
    1680    707650.65    299.02867   -215.26464    91.941247    87.599724    87.862951    215.26464 0.0095456117 
    1700    707598.87    299.39139     -245.487    91.985365    87.588193    87.825944      245.487  0.010030039 
    1720    708577.77    300.28765   -144.72977    92.029482    87.603429    87.889994    144.72977  0.010514465 
    1740    709086.58    301.13021    4.5334949      92.0736    87.604561    87.909827   -4.5334949  0.010998892 
    1760    708882.52    298.73654   -305.82862    92.117718    87.587336    87.859713    305.82862  0.011483319 
    1780    708968.28    300.56057   -298.69033    92.161835    87.586913    87.828703    298.69033  0.011967746 
    1800    709205.32    298.62241   -711.29428    92.205953    87.611733    87.791152    711.29428  0.012452173 
    1820    709543.64    300.71357   -953.62713    92.250071    87.617509    87.785241    953.62713    0.0129366 
    1840    709279.14    300.69245   -787.21165    92.294189    87.526638    87.801632    787.21165  0.013421027 
    1860    708959.52    301.15411   -553.30825    92.338306    87.486563    87.760317    553.30825  0.013905454 
    1880    708967.48    300.49092   -116.74132    92.382424     87.46749    87.738519    116.74132   0.01438988 
    1900    709630.51    300.31451   -420.74565    92.426542    87.508394    87.737623    420.74565  0.014874307 
    1920    709582.82    300.42841   -284.59909    92.470659     87.47169    87.726665    284.59909  0.015358734 
    1940    708904.58    299.81299   -25.443019    92.514777    87.373769    87.699195    25.443019  0.015843161 
    1960    709285.67    299.15722   -237.65597    92.558895     87.36709    87.711221    237.65597  0.016327588 
    1980    710246.49    300.25867    -427.6961    92.603012    87.427102    87.727934     427.6961  0.016812015 
    2000    710839.46    298.44597   -546.46354     92.64713    87.463884    87.722459    546.46354  0.017296442 
    2020    710819.96    299.51624   -700.28089    92.691248    87.447064    87.695166    700.28089  0.017780869 
    2040    710713.79    298.86607   -617.59176    92.735365    87.453127    87.634279    617.59176  0.018265295 
    2060    711575.97    299.97138   -861.56012    92.779483    87.513826     87.63804    861.56012  0.018749722 
    2080    711623.47    299.14015   -910.60064    92.823601    87.508608    87.607458    910.60064  0.019234149 
    2100    711704.28    296.99673   -936.29179    92.867718    87.508275    87.576116    936.29179  0.019718576 
    2120    712020.66    298.91853   -1000.5894    92.911836     87.54628    87.535427    1000.5894  0.020203003 
    2140    711207.71    299.02005   -412.18658    92.955954    87.505454     87.43476    412.18658   0.02068743 
    2160    710950.99    300.22043    66.910931    93.000071     87.48421    87.382952   -66.910931  0.021171857 
    2180    711411.85     300.4297   -17.089151    93.044189    87.503306    87.379063    17.089151  0.021656284 
    2200    711554.48    297.84305    58.007928    93.088307    87.451841    87.406567   -58.007928  0.022140711 
    2220    711363.74    299.26912   -369.51882    93.132424    87.379022    87.414533    369.51882  0.022625137 
    2240    711510.56    299.49819   -403.45238    93.176542    87.355644    87.414563    403.45238  0.023109564 
    2260    711830.35    298.62752   -539.44117     93.22066    87.373149    87.394951    539.44117  0.023593991 
    2280    711406.67     299.5698    -765.7059    93.264778    87.349236    87.325517     765.7059  0.024078418 
    2300     711647.5    299.15662   -603.07252    93.308895    87.354191    87.308823    603.07252  0.024562845 
    2320    711836.26    299.91477   -1094.0153    93.353013    87.337733    87.307157    1094.0153  0.025047272 
    2340    712288.04    300.49102   -1049.7869    93.397131    87.364987    87.294062    1049.7869  0.025531699 
    2360    712436.96    300.59285   -659.43743    93.441248    87.403267    87.232868    659.43743  0.026016126 
    2380     712409.3    301.66374   -577.70665    93.485366    87.408041    87.183552    577.70665  0.026500552 
    2400    712224.76     302.1403   -139.62125    93.529484    87.378661    87.149148    139.62125  0.026984979 
    2420    712249.22    299.96349   -473.83356    93.573601    87.370751    87.118937    473.83356  0.027469406 
    2440    712708.97    301.45861   -309.09332    93.617719    87.358835    87.145976    309.09332  0.027953833 
    2460    712223.78    301.25501   -611.00388    93.661837    87.273027    87.131213    611.00388   0.02843826 
    2480    711842.46    301.78172    -421.5914    93.705954    87.191084    87.125368     421.5914  0.028922687 
    2500    711897.05    301.17839    -472.3805    93.750072      87.1681    87.114009     472.3805  0.029407114 
    2520    711984.16    300.46676   -984.36054     93.79419    87.156007    87.095772    984.36054  0.029891541 
    2540    712424.53    299.18655   -535.57475    93.838307    87.195134     87.06958    535.57475  0.030375967 
    2560    712851.66    300.03873   -559.20561    93.882425    87.150502    87.125438    559.20561  0.030860394 
    2580    713443.85    298.67387    -669.0208    93.926543    87.197109    87.110272     669.0208  0.031344821 
    2600    713696.67    300.01522   -630.71982     93.97066    87.207337    87.090016    630.71982  0.031829248 
    2620    713876.34    301.11213   -768.89508    94.014778    87.199587      87.0788    768.89508  0.032313675 
    2640    714392.48    300.25834   -435.89064    94.058896      87.1423    87.158146    435.89064  0.032798102 
    2660    714543.37     299.5337   -628.36979    94.103013    87.073803     87.20423    628.36979  0.033282529 
    2680    714643.07    298.72576   -347.56866    94.147131    87.041642    87.207737    347.56866  0.033766956 
    2700    715050.37    300.22594   -234.73456    94.191249    87.034363    87.223864    234.73456  0.034251382 
    2720    715660.34    299.67332    -879.0515    94.235366    87.060639    87.231065     879.0515  0.034735809 
    2740    716098.66    299.70819   -681.76862    94.279484    87.023125    87.281257    681.76862  0.035220236 
    2760     716250.5    298.62794   -935.58335    94.323602    87.052981    87.229004    935.58335  0.035704663 
    2780    716400.53     300.7316     -1030.97     94.36772    87.074467    87.184968      1030.97   0.03618909 
    2800    716223.25    300.49932   -1000.3904    94.411837    87.072571    87.124561    1000.3904  0.036673517 
    2820     716347.8     300.0044   -1097.7759    94.455955    87.010266    87.161379    1097.7759  0.037157944 
    2840    716376.68    299.95256   -919.15781    94.500073    86.980508    87.154007    919.15781  0.037642371 
    2860    716301.61    299.98886   -723.48831     94.54419    86.917334    87.167519    723.48831  0.038126797 
    2880    715676.64    302.06086   -263.87551    94.588308    86.882801    87.085444    263.87551  0.038611224 
    2900    716232.28    300.27167   -336.30025    94.632426    86.847866    87.147467    336.30025  0.039095651 
    2920    716873.07    300.34013   -267.92224    94.676543    86.901907    87.130572    267.92224  0.039580078 
    2940    717039.19    300.74165   -33.282349    94.720661    86.887186     87.12493    33.282349  0.040064505 
    2960    717561.87    300.57529   -202.98115    94.764779    86.940285    87.094622    202.98115  0.040548932 
    2980    718006.15    300.29148   -239.10597    94.808896     86.95811    87.090139    239.10597  0.041033359 
    3000    718301.86    300.24729   -757.85094    94.853014    87.027378    87.016168    757.85094  0.041517786 
    3020    718669.29    300.33894   -701.78234    94.897132    87.037087    87.010499    701.78234  0.042002212 
    3040    718989.78    300.85619     -1250.78    94.941249    87.020237    87.025697      1250.78  0.042486639 
    3060    718993.43    300.52103   -1283.8082    94.985367    86.970593    87.035371    1283.8082  0.042971066 
    3080    718988.54     299.2065   -1006.1088    95.029485    86.971966    86.993001    1006.1088  0.043455493 
    3100       719324    299.77736   -951.28795    95.073602    86.975112    86.990054    951.28795   0.04393992 
    3120     719669.7    299.56436   -643.01524     95.11772    86.945923    87.020698    643.01524  0.044424347 
    3140    719057.31    299.93778   -246.88469    95.161838    86.817742    87.034652    246.88469  0.044908774 
    3160    719571.02    300.49602   -261.76117    95.205955    86.823414    87.050784    261.76117  0.045393201 
    3180    719709.78    300.78977   -170.03204    95.250073    86.817924    87.032748    170.03204  0.045877627 
    3200    719828.19    298.02636   -188.42482    95.294191    86.795199    87.029546    188.42482  0.046362054 
    3220    719528.94    299.54733   -198.06369    95.338309    86.767697    86.980671    198.06369  0.046846481 
    3240    720266.89    299.82112   -691.97171    95.382426    86.825208    86.971959    691.97171  0.047330908 
    3260     720157.3    299.82189   -716.36844    95.426544    86.792692    86.951087    716.36844  0.047815335 
    3280    720276.12    299.18121   -712.70041    95.470662    86.819194    86.898711    712.70041  0.048299762 
    3300    720989.29     299.6483    -1072.548    95.514779    86.831767    86.931985     1072.548  0.048784189 
    3320    720485.97    299.67787   -614.85003    95.558897    86.794289    86.868685    614.85003  0.049268616 
    3340    720556.88    300.04451   -546.25085    95.603015    86.763424    86.868036    546.25085  0.049753042 
    3360    721447.93    300.40432   -901.28402    95.647132    86.836624    86.862057    901.28402  0.050237469 
    3380    721471.62    299.47434    -811.4149     95.69125    86.835806    86.825679     811.4149  0.050721896 
    3400    720625.55    300.25947   -343.76521    95.735368    86.777957    86.741679    343.76521  0.051206323 
    3420    721017.24    300.66755   -428.14395    95.779485    86.716802    86.810028    428.14395   0.05169075 
    3440    722007.78    300.86397   -711.29541    95.823603    86.751026    86.854988    711.29541  0.052175177 
    3460    722141.04    300.53758    -636.0927    95.867721    86.687278    86.894895     636.0927  0.052659604 
    3480    722368.47    303.25078   -785.13257    95.911838    86.708762    86.860751    785.13257  0.053144031 
    3500    722770.52    301.61366   -965.54189    95.955956    86.692256    86.885677    965.54189  0.053628458 
    3520    722730.71    301.39203   -691.11265    96.000074    86.614814    86.918608    691.11265  0.054112884 
    3540     723503.2     300.8913   -764.14743    96.044191    86.590798    86.995664    764.14743  0.054597311 
    3560    724067.02    301.05473   -845.38619    96.088309    86.582234    87.032093    845.38619  0.055081738 
    3580    724073.37    302.19749   -852.20722    96.132427    86.544705    87.030638    852.20722  0.055566165 
    3600    724028.79    300.00446   -705.02744    96.176544    86.531908    86.998224    705.02744  0.056050592 
    3620    724717.06    301.75286   -766.57118    96.220662    86.548968    87.023842    766.57118  0.056535019 
    3640    725166.56    300.99485   -708.99963     96.26478    86.573213    87.013535    708.99963  0.057019446 
    3660    724878.06    301.44251   -383.47954    96.308898    86.511245    87.001348    383.47954  0.057503873 
    3680    724118.61    301.24389   -255.71448    96.353015    86.423995    86.958104    255.71448  0.057988299 
    3700    724029.52    299.64432   -462.20567    96.397133    86.431072    86.900496    462.20567  0.058472726 
    3720    724809.18    300.29699   -509.90181    96.441251    86.478998    86.906089    509.90181  0.058957153 
    3740    725356.36    300.06599   -751.57684    96.485368     86.56136    86.849213    751.57684   0.05944158 
    3760    725446.16    301.13883   -876.32799    96.529486    86.583875    86.797691    876.32799  0.059926007 
    3780    725237.29    299.36386   -1023.0407    96.573604    86.558259    86.758728    1023.0407  0.060410434 
    3800    725171.37    299.69307   -889.16189    96.617721    86.530304    86.739243    889.16189  0.060894861 
    3820    725369.03    299.86378   -950.21023    96.661839    86.566355    86.687169    950.21023  0.061379288 
    3840    724982.14    300.94621   -805.25824    96.705957    86.485295    86.682577    805.25824  0.061863714 
    3860     725470.6    299.05151   -618.88302    96.750074    86.521566    86.665079    618.88302  0.062348141 
    3880    725795.56    300.28889   -656.74956    96.794192    86.493645    86.692357    656.74956  0.062832568 
    3900    725676.23    299.47317   -383.72309     96.83831    86.470504    86.661801    383.72309  0.063316995 
    3920    725969.92    299.59688   -331.81774    96.882427    86.477356    86.650528    331.81774  0.063801422 
    3940    726441.08    300.99017   -513.77249    96.926545    86.508557     86.63604    513.77249  0.064285849 
    3960    727169.08    301.01544    -301.5648    96.970663    86.532859    86.659063     301.5648  0.064770276 
    3980    727428.84    299.45087   -589.90573     97.01478    86.510474    86.673018    589.90573  0.065254703 
    4000    727215.58    298.41508    -530.6497    97.058898    86.503554    86.615152     530.6497  0.065739129 
    4020    727036.54    298.90636   -993.84999    97.103016    86.436974    86.621154    993.84999  0.066223556 
    4040    726942.58    300.29129   -1200.2636    97.147133    86.384311    86.623404    1200.2636  0.066707983 
    4060    726765.26    299.87813   -772.81214    97.191251    86.309531    86.637962    772.81214   0.06719241 
    4080    726323.25    299.21397   -1059.9549    97.235369    86.323219    86.532262    1059.9549  0.067676837 
    4100    726195.82    299.14769   -921.94561    97.279486    86.333073    86.467972    921.94561  0.068161264 
    4120    726609.99    298.70167   -570.30741    97.323604    86.369394    86.441703    570.30741  0.068645691 
    4140    726956.35    300.19241   -715.53912    97.367722    86.347047    86.466094    715.53912  0.069130118 
    4160    727348.35    299.31204   -58.945166     97.41184    86.336157    86.484444    58.945166  0.069614544 
    4180    728046.94    298.99416   -504.57115    97.455957    86.298472    86.566106    504.57115  0.070098971 
    4200    728116.32    299.05926   -508.19177    97.500075    86.254736     86.57906    508.19177  0.070583398 
    4220    728824.53    299.66006   -761.03765    97.544193    86.294388    86.584272    761.03765  0.071067825 
    4240    729618.81    299.55162   -835.57005     97.58831    86.359561    86.574062    835.57005  0.071552252 
    4260    730001.35    300.68376   -1052.1339    97.632428    86.343798    86.596118    1052.1339  0.072036679 
    4280    730271.46    300.56923   -1046.6669    97.676546    86.324791    86.608097    1046.6669  0.072521106 
    4300    730517.41    300.75442   -1115.9363    97.720663    86.306657    86.616348    1115.9363  0.073005533 
    4320    730056.77    301.76916   -958.45122    97.764781     86.28697    86.542409    958.45122  0.073489959 
    4340    729858.25    300.50585   -695.27266    97.808899    86.189797    86.577352    695.27266  0.073974386 
    4360    729686.64    300.74871   -431.86528    97.853016    86.156062    86.551847    431.86528  0.074458813 
    4380     729812.9    301.15682   -400.31024    97.897134    86.111996     86.57209    400.31024   0.07494324 
    4400    728812.91    301.80166    -383.1836    97.941252    86.068355    86.458343     383.1836  0.075427667 
    4420    728920.93    302.04421   -410.44072    97.985369    86.057746    86.442879    410.44072  0.075912094 
    4440    729129.48    300.79359   -560.94774    98.029487    86.090078    86.396237    560.94774  0.076396521 
    4460     729843.5    299.90371   -573.16917    98.073605    86.099903    86.432076    573.16917  0.076880948 
    4480     730015.8    300.12154   -480.18159    98.117722    86.123609    86.389823    480.18159  0.077365374 
    4500    730656.72    298.81673   -500.16239     98.16184    86.162905    86.387392    500.16239  0.077849801 
    4520    730760.99     300.5609   -762.14826    98.205958    86.195231    86.328518    762.14826  0.078334228 
    4540    730811.76    300.02415   -721.03766    98.250075    86.185844    86.305147    721.03766  0.078818655 
    4560    731921.26    299.72095   -909.89861    98.294193    86.189143     86.39407    909.89861  0.079303082 
    4580    732858.71    299.92001   -847.09531    98.338311     86.21744    86.437538    847.09531  0.079787509 
    4600    732168.89    300.16612    -293.6423    98.382429    86.186756    86.348182     293.6423  0.080271936 
    4620    732996.15    300.30116   -646.01485    98.426546    86.208474    86.385229    646.01485  0.080756363 
    4640    733516.47    300.53569   -655.27663    98.470664    86.195455    86.420871    655.27663   0.08124079 
    4660    733451.46     299.5092   -545.71945    98.514782    86.171833     86.39819    545.71945  0.081725216 
    4680    733279.67    299.21146   -346.08727    98.558899    86.118901    86.392356    346.08727  0.082209643 
    4700    733884.77    298.67478   -802.31575    98.603017    86.131214    86.412606    802.31575   0.08269407 
    4720    733935.09    300.92628    -1064.597    98.647135     86.11696     86.39418     1064.597  0.083178497 
    4740    733956.76    299.20917   -867.33153    98.691252    86.116621    86.358449    867.33153  0.083662924 
    4760    734609.45    299.26778   -700.73556     98.73537    86.138152    86.375028    700.73556  0.084147351 
    4780    735571.36    298.92183    -1169.882    98.779488    86.164783    86.422782     1169.882  0.084631778 
    4800    734581.99    300.85345   -807.36123    98.823605    86.106362    86.326542    807.36123  0.085116205 
    4820    734355.14    301.07937   -712.29132    98.867723    86.067854    86.299968    712.29132  0.085600631 
    4840    734971.62    300.73222   -603.29729    98.911841    86.076172    86.325548    603.29729  0.086085058 
    4860    735765.78    300.13106   -543.69243    98.955958    86.080152    86.376303    543.69243  0.086569485 
    4880    735492.62    301.25968    -321.8617    99.000076     85.97758    86.408721     321.8617  0.087053912 
    4900    735327.99    300.14854   -276.55771    99.044194    85.934134    86.394555    276.55771  0.087538339 
    4920    735496.64    302.04232     -208.095    99.088311    85.913296    86.396845      208.095  0.088022766 
    4940    736314.69     301.1015   -236.00215    99.132429    85.949345    86.418186    236.00215  0.088507193 
    4960    736542.47     301.1516   -757.36539    99.176547    85.957493    86.398275    757.36539   0.08899162 
    4980    736601.29    300.44271   -775.03925    99.220664    85.955653    86.368604    775.03925  0.089476046 
    5000     736394.9     300.8809   -771.61342    99.264782    85.943106    86.318629    771.61342  0.089960473 
    5020    736454.46    301.06506   -959.45219      99.3089    85.903279    86.327266    959.45219    0.0904449 
    5040    736721.18    300.64218   -1112.3499    99.353017    85.924415    86.298949    1112.3499  0.090929327 
    5060    736852.72    299.17476    -1151.386    99.397135    85.929554    86.270887     1151.386  0.091413754 
    5080    736089.83    300.18996   -761.97074    99.441253    85.838526    86.234684    761.97074  0.091898181 
    5100    736373.53     301.1124   -441.00165    99.485371    85.824327     86.24393    441.00165  0.092382608 
    5120    737007.73    300.58556    -466.7153    99.529488    85.914305    86.189585     466.7153  0.092867035 
    5140     737431.2    299.84152   -359.11648    99.573606    85.885749    86.229559    359.11648  0.093351461 
    5160    737343.25    298.85363   -282.34441    99.617724    85.815328    86.251812    282.34441  0.093835888 
    5180    737805.53    299.00961   -839.76316    99.661841    85.802427    86.280653    839.76316  0.094320315 
    5200    737736.43    300.11743   -929.43901    99.705959    85.794862    86.242004    929.43901  0.094804742 
    5220    738014.64    300.30254   -546.43411    99.750077    85.798604    86.232608    546.43411  0.095289169 
    5240    738984.09    299.51547   -812.68922    99.794194    85.870774    86.235172    812.68922  0.095773596 
    5260    739315.92    300.50955    -794.2609    99.838312    85.818657    86.288141     794.2609  0.096258023 
    5280    738816.15    299.93067   -393.07594     99.88243    85.733143    86.277695    393.07594   0.09674245 
    5300    738797.86     300.7451   -723.98269    99.926547    85.709325    86.261434    723.98269  0.097226876 
    5320    739567.38    301.05075   -372.80908    99.970665     85.78674    86.235284    372.80908  0.097711303 
    5340    739294.61    298.27458   -555.26698    100.01478    85.790237    86.161941    555.26698   0.09819573 
    5360     738929.1    300.29407   -781.34935     100.0589    85.766356     86.10534    781.34935  0.098680157 
    5380    738940.42    300.53645   -634.45376    100.10302    85.719168     86.11609    634.45376  0.099164584 
    5400    738841.21    299.42818   -501.27899    100.14714    85.736705    86.048992    501.27899  0.099649011 
    5420    739176.85    300.63873   -515.73724    100.19125    85.783848    86.002885    515.73724   0.10013344 
    5440    740423.77    300.17854   -644.75695    100.23537    85.872133    86.021517    644.75695   0.10061786 
    5460    740496.02    300.55587   -679.33142    100.27949    85.879564    85.984622    679.33142   0.10110229 
    5480    740512.74    301.44973   -680.51285    100.32361    85.879761    85.948554    680.51285   0.10158672 
    5500    740751.93     300.4097   -1047.8861    100.36772    85.860683    85.957619    1047.8861   0.10207115 
    5520     741114.2    300.10892   -833.64172    100.41184    85.872085    85.950457    833.64172   0.10255557 
    5540    740785.87    301.66402   -764.88329    100.45596     85.85875    85.887986    764.88329      0.10304 
    5560    741112.54    300.44017   -883.51893    100.50008    85.831881    85.915028    883.51893   0.10352443 
    5580    741286.74    299.51893   -476.82843    100.54419    85.766562    85.962935    476.82843   0.10400885 
    5600    741536.74     301.6742   -540.03978    100.58831    85.713859     86.00706    540.03978   0.10449328 
    5620    742304.49    299.48276   -462.57204    100.63243    85.731222    86.040933    462.57204   0.10497771 
    5640     742504.2    299.78927   -667.65273    100.67655     85.73191    86.025678    667.65273   0.10546213 
    5660    742092.94    300.03452   -514.92227    100.72067    85.685263    85.987155    514.92227   0.10594656 
    5680    742532.14    299.37583   -755.93572    100.76478    85.717693    85.967838    755.93572   0.10643099 
    5700    743002.02    299.41948   -963.23521     100.8089    85.774807    85.927339    963.23521   0.10691541 
    5720    742965.41    299.04067   -852.66607    100.85302    85.787299    85.873012    852.66607   0.10739984 
    5740    742623.05    301.40425   -581.40763    100.89714    85.739659    85.843582    581.40763   0.10788427 
    5760    743436.89    299.76605   -660.50819    100.94125    85.783769    85.855928    660.50819   0.10836869 
    5780    743693.56    299.76842   -635.51703    100.98537    85.775472    85.856353    635.51703   0.10885312 
    5800    742922.55    299.46697   -380.06971    101.02949    85.640226    85.865277    380.06971   0.10933755 
    5820    742747.92    299.43589   -229.07349    101.07361    85.577751    85.870267    229.07349   0.10982198 
    5840    742109.52    299.10685   -182.23521    101.11772    85.537475    85.799407    182.23521    0.1103064 
    5860    741813.34    299.64066   -465.92123    101.16184    85.487255    85.778123    465.92123   0.11079083 
    5880    742081.64    300.15439   -749.53819    101.20596     85.39531    85.864091    749.53819   0.11127526 
    5900    742503.03    299.68896   -887.10477    101.25008    85.358751    85.912195    887.10477   0.11175968 
    5920    742430.24    299.67998    -551.7332     101.2942    85.345662    85.879527     551.7332   0.11224411 
    5940    742837.13    300.18438   -804.37231    101.33831    85.337345    85.897555    804.37231   0.11272854 
    5960     743598.1    299.65646   -756.67846    101.38243    85.348123    85.937278    756.67846   0.11321296 
    5980    744168.06    299.39664   -1117.6105    101.42655    85.356067    85.957739    1117.6105   0.11369739 
    6000    744964.93    300.86745   -1140.5806    101.47067    85.394124    85.974038    1140.5806   0.11418182 
    6020    745098.36    299.67123   -964.01988    101.51478    85.364182    85.982215    964.01988   0.11466624 
    6040    745277.77    300.55011   -349.93973     101.5589    85.361522    85.968237    349.93973   0.11515067 
    6060    745581.15    299.73933   -148.01491    101.60302    85.308325    86.019496    148.01491    0.1156351 
    6080    745809.27     299.1502   -284.38582    101.64714    85.358042    85.958373    284.38582   0.11611952 
    6100    746497.84     299.4686   -243.56711    101.69125    85.383354    85.974912    243.56711   0.11660395 
    6120    747183.02    300.17207   -514.30492    101.73537    85.404768     85.99494    514.30492   0.11708838 
    6140    747195.48     300.1149   -601.39428    101.77949    85.383013    85.980999    601.39428   0.11757281 
    6160    747193.78    297.27583   -604.33773    101.82361    85.409344    85.917055    604.33773   0.11805723 
    6180    746981.58    299.02848   -892.95847    101.86773    85.386594     85.87833    892.95847   0.11854166 
    6200    747639.71    299.17759   -953.36896    101.91184    85.412796    85.890428    953.36896   0.11902609 
    6220    747917.59    299.82502   -1259.3259    101.95596    85.420925    85.876999    1259.3259   0.11951051 
    6240    747963.41    299.68348   -947.86574    102.00008    85.399316    85.866835    947.86574   0.11999494 
    6260    748161.15    298.27439   -918.50677     102.0442    85.406339    85.845343    918.50677   0.12047937 
    6280    748065.52    299.62935   -707.94248    102.08831     85.37857    85.825181    707.94248   0.12096379 
    6300    747399.18    300.05763   -382.70546    102.13243    85.321077    85.769449    382.70546   0.12144822 
    6320     748018.9    300.02131   -490.16225    102.17655    85.398913    85.725297    490.16225   0.12193265 
    6340    748758.87    300.37742   -602.45614    102.22067    85.432162    85.739684    602.45614   0.12241707 
    6360    748412.11     301.5068   -314.45827    102.26478    85.387962    85.707347    314.45827    0.1229015 
    6380    748138.63    299.93252   -333.53281     102.3089    85.336777     85.69045    333.53281   0.12338593 
    6400    748964.28     301.5466   -840.09116    102.35302    85.352529    85.732216    840.09116   0.12387035 
    6420    749672.91    301.20803   -1042.8422    102.39714    85.316889    85.812191    1042.8422   0.12435478 
    6440    749534.52     301.8456   -805.69883    102.44126    85.266753    85.809827    805.69883   0.12483921 
    6460    748812.23    301.98927   -625.69726    102.48537    85.155034    85.802652    625.69726   0.12532364 
    6480     748476.8    301.02258   -611.21334    102.52949    85.097059    85.785718    611.21334   0.12580806 
    6500    748490.16    301.47548   -614.58427    102.57361    85.037125    85.810789    614.58427   0.12629249 
    6520    749355.72    300.29151   -864.17097    102.61773    85.067695    85.842228    864.17097   0.12677692 
    6540    749996.22     300.1164   -861.36234    102.66184    85.127165    85.818684    861.36234   0.12726134 
    6560    749134.17    301.23048    -451.6057    102.70596    85.108469    85.702043     451.6057   0.12774577 
    6580    749282.26    301.03979   -319.07991    102.75008    85.091259     85.69951    319.07991    0.1282302 
    6600    749826.82    300.76274   -577.99446     102.7942    85.125661    85.690343    577.99446   0.12871462 
    6620    750320.86    300.23477   -718.06695    102.83831    85.147567    85.687965    718.06695   0.12919905 
    6640     750346.3    299.98866    -816.8082    102.88243    85.151761    85.649906     816.8082   0.12968348 
    6660    750150.34    300.96641   -773.78412    102.92655    85.115078    85.627722    773.78412    0.1301679 
    6680    749670.65    300.66994   -690.59237    102.97067    85.075656    85.575939    690.59237   0.13065233 
    6700    749629.89    300.87384    -797.2294    103.01479    85.008567    85.602144     797.2294   0.13113676 
    6720    750483.71    300.80943   -660.64508     103.0589    85.027253    85.644131    660.64508   0.13162118 
    6740    751266.68    299.13798   -729.31486    103.10302    85.031393    85.692625    729.31486   0.13210561 
    6760    750272.99    299.88141   -452.97102    103.14714    84.975462    85.598981    452.97102   0.13259004 
    6780    750481.87    300.92356   -320.14339    103.19126    85.022021    85.539337    320.14339   0.13307447 
    6800    751108.98    300.26155   -727.34882    103.23537    85.084502    85.511388    727.34882   0.13355889 
    6820    751138.34    299.19261   -859.63227    103.27949    85.023157    85.539876    859.63227   0.13404332 
    6840    750930.75    300.34712   -700.79124    103.32361    85.009892     85.49306    700.79124   0.13452775 
    6860     751302.1    300.43267   -979.47927    103.36773    85.018225    85.490451    979.47927   0.13501217 
    6880    751375.59    300.21179     -760.421    103.41184    85.012885    85.467706      760.421    0.1354966 
    6900    751677.54    300.67092   -386.33185    103.45596     84.97401     85.50469    386.33185   0.13598103 
    6920    752443.12    299.06587   -654.30554    103.50008    84.981024    85.548231    654.30554   0.13646545 
    6940    752575.03    299.38066   -585.29381     103.5442    84.957388    85.550566    585.29381   0.13694988 
    6960    752353.38     298.6251   -497.40781    103.58831    84.903001    85.543708    497.40781   0.13743431 
    6980    752857.35    300.85993   -629.50495    103.63243    84.907237      85.5603    629.50495   0.13791873 
    7000    753400.66    299.32994   -596.35511    103.67655    84.910193     85.58263    596.35511   0.13840316 
    7020    753278.23    298.61453   -739.58044    103.72067    84.885307    85.557402    739.58044   0.13888759 
    7040    753762.61     300.3025   -603.94365    103.76479     84.91177    85.549347    603.94365   0.13937201 
    7060    753856.59    299.57754   -932.71356     103.8089    84.893258    85.542302    932.71356   0.13985644 
    7080    753318.46    300.75295   -957.11362    103.85302    84.847112    85.491397    957.11362   0.14034087 
    7100    753890.58    299.93324   -562.88355    103.89714    84.893483    85.473282    562.88355    0.1408253 
    7120    754722.96    299.90698   -625.94856    103.94126    84.929309    85.495255    625.94856   0.14130972 
    7140    754596.29    299.33582   -898.57254    103.98537    84.938685    85.435206    898.57254   0.14179415 
    7160    754155.27    299.89756   -450.97923    104.02949    84.872735    85.415383    450.97923   0.14227858 
    7180    753618.67    299.53628   -687.96376    104.07361     84.79762    85.394002    687.96376     0.142763 
    7200    753831.15    299.91867   -439.31104    104.11773    84.808363     85.37107    439.31104   0.14324743 
    7220    754124.67    299.11756   -439.63507    104.16184    84.817619    85.358822    439.63507   0.14373186 
    7240    754028.32    298.84636   -19.627556    104.20596    84.770478    85.359224    19.627556   0.14421628 
    7260    754367.64    300.88573   -477.94323    104.25008    84.693118    85.439468    477.94323   0.14470071 
    7280    755255.42    300.66537   -861.47294     104.2942     84.74906    85.447392    861.47294   0.14518514 
    7300    755153.96    298.82039   -648.26062    104.33832    84.733337    85.415635    648.26062   0.14566956 
    7320    755483.79    300.64884   -936.03162    104.38243    84.716195    85.434108    936.03162   0.14615399 
    7340    755823.22    300.16792   -1158.0783    104.42655    84.662125    85.490947    1158.0783   0.14663842 
    7360    755394.44    300.98385   -815.04293    104.47067    84.623534    85.445315    815.04293   0.14712284 
    7380    755409.34    301.26443   -411.35092    104.51479    84.615486    85.419054    411.35092   0.14760727 
    7400    756268.88    300.55069   -695.05278     104.5589    84.687054    85.407927    695.05278    0.1480917 
    7420    756599.32    300.40836   -167.07025    104.60302    84.707844    85.388245    167.07025   0.14857613 
    7440    756435.42    300.72986    46.128807    104.64714    84.690661    85.351071   -46.128807   0.14906055 
    7460    757262.24    300.28837   -138.57563    104.69126    84.685953    85.413105    138.57563   0.14954498 
    7480    758254.89    300.80149   -183.57073    104.73537    84.696572    85.478324    183.57073   0.15002941 
    7500    758180.68     299.7832   -557.04471    104.77949    84.716513    85.413861    557.04471   0.15051383 
    7520    758679.77    297.80843   -1035.0485    104.82361     84.72245    85.428127    1035.0485   0.15099826 
    7540    759987.33    298.75807   -1257.8534    104.86773      84.7829    85.478369    1257.8534   0.15148269 
    7560    760153.28    299.71977   -1132.3795    104.91185    84.734691    85.509703    1132.3795   0.15196711 
    7580    759767.04    299.24188   -890.72991    104.95596    84.712695    85.452511    890.72991   0.15245154 
    7600    759819.46    299.02889   -695.65954    105.00008    84.728414    85.406653    695.65954   0.15293597 
    7620    760114.24    300.62952   -684.82343     105.0442    84.712793    85.419651    684.82343   0.15342039 
    7640    760144.57    298.48727   -371.47991    105.08832    84.658178    85.442284    371.47991   0.15390482 
    7660    760130.61    298.98486   -322.31248    105.13243    84.663119    85.399875    322.31248   0.15438925 
    7680    759783.61    300.36113   -286.00685    105.17655    84.644647    85.343706    286.00685   0.15487367 
    7700    759564.89    300.94725   -291.42862    105.22067    84.627601    85.300542    291.42862    0.1553581 
    7720     759541.3    298.79929   -282.67073    105.26479    84.632598    85.257111    282.67073   0.15584253 
    7740    759575.81    299.17209   -496.32343     105.3089    84.619163    85.238795    496.32343   0.15632696 
    7760    760052.71    299.96792   -686.72526    105.35302    84.603139    85.272744    686.72526   0.15681138 
    7780    760492.25    300.37677   -1020.5956    105.39714    84.603047    85.286435    1020.5956   0.15729581 
    7800    760922.85    299.45256   -1115.9016    105.44126    84.642942    85.258816    1115.9016   0.15778024 
    7820    761023.71    299.20402   -1013.1116    105.48538    84.628274    85.249228    1013.1116   0.15826466 
    7840    760888.94    300.35171   -979.87301    105.52949    84.576008    85.251149    979.87301   0.15874909 
    7860    761309.54    300.18964   -387.78067    105.57361    84.607444    85.230948    387.78067   0.15923352 
    7880    761658.12     301.5435   -383.32626    105.61773    84.676245      85.1651    383.32626   0.15971794 
    7900    762272.36    300.85236   -287.00832    105.66185    84.707756    85.166501    287.00832   0.16020237 
    7920    762070.42    300.24703   -327.44237    105.70596    84.688822     85.12743    327.44237    0.1606868 
    7940    761836.54    299.61656   -319.49383    105.75008     84.62792    85.127019    319.49383   0.16117122 
    7960    762213.96    300.96982   -153.63241     105.7942    84.626344     85.13526    153.63241   0.16165565 
    7980    762897.57    300.14185   -437.53382    105.83832    84.602064     85.20054    437.53382   0.16214008 
    8000    763090.06      300.363   -493.55532    105.88243    84.582088    85.206648    493.55532    0.1626245 
    8020    763064.15     301.0171    -612.1742    105.92655    84.588126    85.162188     612.1742   0.16310893 
    8040    763392.12    299.86107   -828.51757    105.97067    84.620953    85.130284    828.51757   0.16359336 
    8060    763684.98     299.7063   -637.34194    106.01479    84.622113    85.126335    637.34194   0.16407779 
    8080    764032.95    300.00045   -660.70095     106.0589    84.559922    85.192307    660.70095   0.16456221 
    8100    764447.04    299.11357   -952.04206    106.10302     84.52135     85.24192    952.04206   0.16504664 
    8120    764446.64    300.12249   -896.42837    106.14714    84.445492    85.282989    896.42837   0.16553107 
    8140    764924.49    300.16277    -775.6314    106.19126    84.434532    85.311916     775.6314   0.16601549 
    8160    765000.63    300.28388   -366.55191    106.23538    84.442279    85.277153    366.55191   0.16649992 
    8180    764505.13    300.44596   -114.21397    106.27949    84.388225    85.241106    114.21397   0.16698435 
    8200    765107.87    301.40256    -254.2474    106.32361    84.342353    85.319291     254.2474   0.16746877 
    8220    765648.38    299.35456   -401.26205    106.36773    84.351565    85.334832    401.26205    0.1679532 
    8240    765359.13    298.53941    -542.2584    106.41185    84.335126    85.283848     542.2584   0.16843763 
    8260    764623.68    298.99653   -418.56394    106.45596    84.268083    85.234346    418.56394   0.16892205 
    8280    764499.66    299.81322   -480.36668    106.50008    84.255557    85.197883    480.36668   0.16940648 
    8300    764401.65    299.25051   -601.52564     106.5442    84.236272     85.17118    601.52564   0.16989091 
    8320    764145.59    298.80499   -634.37646    106.58832    84.183628    85.160631    634.37646   0.17037533 
    8340    764460.73    301.60636   -831.35852    106.63243    84.183812    85.160316    831.35852   0.17085976 
    8360    764651.02    300.97627   -833.45935    106.67655    84.197654    85.132289    833.45935   0.17134419 
    8380    764038.89    299.31532   -356.47799    106.72067    84.160811    85.066196    356.47799   0.17182862 
    8400     763573.9     300.0501   -366.62629    106.76479    84.107536    85.033121    366.62629   0.17231304 
    8420    764128.78    301.22649   -357.33379    106.80891    84.137877    85.029093    357.33379   0.17279747 
    8440    764337.77    302.30903   -167.60174    106.85302    84.117637    85.037688    167.60174    0.1732819 
    8460    764173.37    301.02252   -180.57925    106.89714    84.131481    84.970324    180.57925   0.17376632 
    8480    764423.06    302.00888   -622.98369    106.94126    84.143542    84.950845    622.98369   0.17425075 
    8500    764729.83    300.35356   -893.03882    106.98538    84.143616    84.949816    893.03882   0.17473518 
    8520    764821.32    301.68042   -824.72315    107.02949    84.134584    84.934075    824.72315    0.1752196 
    8540    765022.94      301.324    -963.3009    107.07361    84.198195    84.857303     963.3009   0.17570403 
    8560    765605.44    301.24429   -939.00988    107.11773    84.217412    84.867569    939.00988   0.17618846 
    8580    765297.85     302.0393   -734.47391    107.16185     84.14368    84.872853    734.47391   0.17667288 
    8600    765083.48    300.37058   -367.10388    107.20596    84.095709    84.862542    367.10388   0.17715731 
    8620    766254.24    301.69028   -653.27579    107.25008    84.144297    84.908383    653.27579   0.17764174 
    8640    766919.51    299.91777   -548.19345     107.2942     84.14804    84.943379    548.19345   0.17812616 
    8660    766796.18    299.96239   -270.58679    107.33832    84.122279     84.92081    270.58679   0.17861059 
    8680    767063.41    301.46375    -479.7059    107.38244    84.119381    84.918428     479.7059   0.17909502 
    8700    767151.19    300.22468   -290.98534    107.42655    84.158374    84.853935    290.98534   0.17957945 
    8720     767233.1     299.6759   -29.764619    107.47067    84.165937    84.820535    29.764619   0.18006387 
    8740    767552.48    300.62333   -472.48828    107.51479     84.14757    84.839537    472.48828    0.1805483 
    8760    767704.53    299.16037   -647.63848    107.55891    84.125635    84.843656    647.63848   0.18103273 
    8780     767893.3    300.20656   -867.29298    107.60302    84.124733    84.830632    867.29298   0.18151715 
    8800    768486.23    300.28189   -819.92282    107.64714    84.127641    84.858407    819.92282   0.18200158 
    8820    769114.64    300.17499   -1083.2227    107.69126    84.146579      84.8739    1083.2227   0.18248601 
    8840    769407.31    299.66538   -1152.5625    107.73538    84.140139    84.877924    1152.5625   0.18297043 
    8860     769680.4    299.39344   -921.61463    107.77949    84.188904    84.824134    921.61463   0.18345486 
    8880    769984.01    299.94213   -509.91304    107.82361      84.1815    84.830333    509.91304   0.18393929 
    8900    770311.55    299.91081   -169.38235    107.86773    84.180804    84.832409    169.38235   0.18442371 
    8920    770753.28    300.64401   -279.47599    107.91185    84.183448     84.84369    279.47599   0.18490814 
    8940    771170.35    301.11093   -558.19791    107.95597     84.13795    84.900794    558.19791   0.18539257 
    8960    771471.34    300.38633   -482.80735    108.00008    84.080579    84.957165    482.80735   0.18587699 
    8980    771051.99    299.43805   -343.22226     108.0442    84.030862     84.92653    343.22226   0.18636142 
    9000    771268.52    300.61612   -220.02866    108.08832    84.002379      84.9445    220.02866   0.18684585 
    9020    771693.46    300.53237   -544.21753    108.13244    84.036676    84.921952    544.21753   0.18733028 
    9040    772516.11    298.15755   -897.80805    108.17655    84.043349    84.971064    897.80805    0.1878147 
    9060    772934.63    298.72791    -931.5139    108.22067    84.040878    84.984938     931.5139   0.18829913 
    9080    772797.29    298.54481   -993.86889    108.26479    84.033591    84.942577    993.86889   0.18878356 
    9100       772873    299.05099   -834.45327    108.30891    84.062953    84.886635    834.45327   0.18926798 
    9120    773503.37    300.30175   -786.33174    108.35302    84.112659    84.871096    786.33174   0.18975241 
    9140    773437.97    299.92099   -786.65261    108.39714    84.109255    84.832813    786.65261   0.19023684 
    9160    773279.32    300.99565   -358.27646    108.44126     84.08624    84.804111    358.27646   0.19072126 
    9180    773655.35    300.42644   -445.19529    108.48538    84.086417    84.810667    445.19529   0.19120569 
    9200     773512.3    300.22691   -459.09153     108.5295    84.068338    84.778744    459.09153   0.19169012 
    9220    773094.83      300.966   -223.50135    108.57361    84.082518    84.684275    223.50135   0.19217454 
    9240    772948.21     302.2419   -176.20765    108.61773    84.072374    84.644036    176.20765   0.19265897 
    9260    773117.44    302.52604    -632.6676    108.66185     84.03995    84.660845     632.6676    0.1931434 
    9280    773370.36    301.07622   -733.06669    108.70597    84.030692    84.663497    733.06669   0.19362782 
    9300    773741.39    302.28429   -602.10968    108.75008    84.087851    84.612198    602.10968   0.19411225 
    9320    773776.06      300.102   -789.49593     108.7942    84.122709    84.546628    789.49593   0.19459668 
    9340    773975.55    301.22991   -659.29278    108.83832    84.118742    84.538133    659.29278   0.19508111 
    9360    774143.27    301.07012   -621.29935    108.88244    84.075446    84.565716    621.29935   0.19556553 
    9380    774557.48    300.58883   -613.39482    108.92655    84.105572      84.5464    613.39482   0.19604996 
    9400    774549.22     301.2734   -330.90764    108.97067    84.098874    84.518001    330.90764   0.19653439 
    9420    774497.06    300.01427   -267.46863    109.01479    84.045747    84.531507    267.46863   0.19701881 
    9440    774890.32    301.32612   -438.72106    109.05891    84.019885    84.566238    438.72106   0.19750324 
    9460    774824.33    300.18535   -517.88513    109.10302    84.035427    84.509211    517.88513   0.19798767 
    9480    774948.24    299.55155   -227.78925    109.14714    84.013978    84.510131    227.78925   0.19847209 
    9500    775892.59    299.16815   -255.14034    109.19126    84.052977    84.539685    255.14034   0.19895652 
    9520    777206.44    299.04849   -904.50135    109.23538    84.076319    84.625137    904.50135   0.19944095 
    9540    777089.87    300.02515   -665.03658     109.2795    84.051237    84.603525    665.03658   0.19992537 
    9560     776642.8    300.97779   -521.26436    109.32361     83.96037    84.612202    521.26436    0.2004098 
    9580    777607.38    299.89165   -880.34336    109.36773    83.978446    84.664888    880.34336   0.20089423 
    9600    778403.44    299.73378   -764.99115    109.41185    83.989428     84.70631    764.99115   0.20137866 
    9620    778292.91    299.84434   -747.24309    109.45597    83.976565    84.673114    747.24309   0.20186308 
    9640    778419.23    300.24161   -846.46211    109.50008    83.970392    84.658958    846.46211   0.20234751 
    9660    778241.98    301.48462   -675.65425     109.5442    83.990279    84.585562    675.65425   0.20283194 
    9680    777888.14    298.32333   -420.20988    109.58832    83.961617    84.541916    420.20988   0.20331636 
    9700     778586.8     299.8126    -404.4497    109.63244     84.01233    84.532739     404.4497   0.20380079 
    9720    778826.81    299.64985   -355.63585    109.67655    83.991363    84.545883    355.63585   0.20428522 
    9740    778875.36    299.48601   -366.25848    109.72067    83.996521    84.511966    366.25848   0.20476964 
    9760    779494.06     299.8366   -214.03947    109.76479    84.028902    84.512523    214.03947   0.20525407 
    9780    780644.62    299.24379   -510.76924    109.80891    84.035608    84.596511    510.76924    0.2057385 
    9800    780856.21    298.65407   -442.93522    109.85303    84.002071    84.619226    442.93522   0.20622292 
    9820    780754.73    298.97828   -591.57927    109.89714     84.00803    84.568265    591.57927   0.20670735 
    9840    781351.48    299.34926   -624.71141    109.94126    84.029573    84.577252    624.71141   0.20719178 
    9860    782432.38    299.07923   -603.06666    109.98538     84.05673    84.632929    603.06666    0.2076762 
    9880    782569.81    298.46239   -499.39242     110.0295    84.073807    84.596667    499.39242   0.20816063 
    9900    782058.17    299.05099   -519.38475    110.07361    84.005375    84.576315    519.38475   0.20864506 
    9920    781839.71    299.14906   -512.64977    110.11773    83.962665    84.561807    512.64977   0.20912949 
    9940    782103.57    299.35124   -781.81453    110.16185    83.968653    84.550439    781.81453   0.20961391 
    9960    782420.41    298.76399   -706.04623    110.20597    83.982352    84.537038    706.04623   0.21009834 
    9980    782128.61    300.53924   -418.27153    110.25008    83.925369    84.529049    418.27153   0.21058277 
   10000    781926.29    301.54547   -271.05879     110.2942    83.905602    84.493281    271.05879   0.21106719 
   10020    781867.47    301.30966    -248.1175    110.33832    83.855341    84.503763     248.1175   0.21155162 
   10040     782424.7    300.58949   -421.49706    110.38244    83.855989    84.529536    421.49706   0.21203605 
   10060    783141.59    300.65593   -509.15133    110.42656    83.897417    84.531422    509.15133   0.21252047 
   10080    782705.72    300.48768   -669.77091    110.47067    83.815276    84.533399    669.77091    0.2130049 
   10100    782416.91    301.07582   -546.77857    110.51479    83.752318    84.531969    546.77857   0.21348933 
   10120    782142.31    299.96233   -421.65799    110.55891    83.698726    84.522667    421.65799   0.21397375 
   10140    782401.91    300.95479   -547.49419    110.60303    83.714473    84.501096    547.49419   0.21445818 
   10160    782844.71    299.96026   -525.20232    110.64714    83.705514    84.524253    525.20232   0.21494261 
   10180    782746.17    302.23941   -649.81117    110.69126    83.734292    84.450896    649.81117   0.21542703 
   10200    782729.58    300.80675    -678.6862    110.73538    83.712216    84.437723     678.6862   0.21591146 
   10220    783109.43    301.30734   -477.93207     110.7795    83.703393    84.453958    477.93207   0.21639589 
   10240    783586.37     301.0758   -360.80204    110.82361    83.670462    84.504997    360.80204   0.21688032 
   10260     784139.6    300.13795   -390.12078    110.86773    83.739171     84.46165    390.12078   0.21736474 
   10280     784209.4    299.91553   -390.14787    110.91185    83.705034    84.470005    390.14787   0.21784917 
   10300    784476.88    299.71196    -215.4245    110.95597    83.717345    84.452797     215.4245    0.2183336 
   10320    784804.67    299.89621   -400.45899    111.00009    83.701917    84.470072    400.45899   0.21881802 
   10340    784764.06    299.89216   -507.65635     111.0442    83.714321    84.419632    507.65635   0.21930245 
   10360    785256.75     298.5183   -717.33099    111.08832    83.705896    84.447584    717.33099   0.21978688 
   10380     784640.5    299.24887   -858.41924    111.13244    83.718942    84.334669    858.41924    0.2202713 
   10400    784437.44    300.73178   -1046.4019    111.17656    83.708336    84.290065    1046.4019   0.22075573 
   10420    784408.45    299.64902   -1032.3703    111.22067    83.688646     84.27334    1032.3703   0.22124016 
   10440    784682.79    299.67969   -624.32398    111.26479     83.64115    84.317238    624.32398   0.22172458 
   10460    783835.69    300.26971   -526.84742    111.30891      83.6097      84.2245    526.84742   0.22220901 
   10480    784469.58    300.45296   -516.14405    111.35303    83.657381    84.211192    516.14405   0.22269344 
   10500     785005.6    301.52782   -358.31828    111.39714    83.666163    84.226517    358.31828   0.22317786 
   10520    785431.62    299.63415   -517.36281    111.44126    83.669606    84.235399    517.36281   0.22366229 
   10540    785435.77    299.33884    -556.9113    111.48538    83.659208    84.212974     556.9113   0.22414672 
   10560    785530.36    300.11844   -531.20556     111.5295    83.622056    84.227204    531.20556   0.22463115 
   10580    786105.87    299.83459   -252.82963    111.57362    83.588452    84.289456    252.82963   0.22511557 
   10600    786286.34    300.71012   -350.67039    111.61773    83.565132    84.299001    350.67039       0.2256 
   10620    786399.13    299.12338   -239.86264    111.66185    83.603226    84.239381    239.86264   0.22608443 
   10640    787211.43    298.36271   -381.40334    111.70597    83.605499    84.290799    381.40334   0.22656885 
   10660    787501.29     298.9651   -627.51397    111.75009    83.611085    84.282915    627.51397   0.22705328 
   10680    786929.83    297.90853   -699.76065     111.7942     83.49979    84.300731    699.76065   0.22753771 
   10700    786971.23     299.4905   -708.97756    111.83832     83.54644    84.224855    708.97756   0.22802213 
   10720    787755.78    298.83206   -702.24486    111.88244    83.573475    84.248313    702.24486   0.22850656 
   10740     788073.7    298.16564   -914.59572    111.92656    83.583658    84.238828    914.59572   0.22899099 
   10760    787768.47    299.78926   -607.45195    111.97067    83.486092    84.271392    607.45195   0.22947541 
   10780    787946.23     298.9757   -488.02207    112.01479    83.526589    84.216358    488.02207   0.22995984 
   10800    788541.61    299.16879   -398.46937    112.05891    83.532371     84.24098    398.46937   0.23044427 
   10820    789242.62    298.81929   -339.64384    112.10303    83.595334    84.219208    339.64384   0.23092869 
   10840    789441.64    299.45758   -250.70987    112.14714    83.575918    84.226867    250.70987   0.23141312 
   10860    789956.91    300.73895   -314.45345    112.19126    83.637664    84.186504    314.45345   0.23189755 
   10880    790150.15    300.89523   -279.56803    112.23538    83.649437     84.16215    279.56803   0.23238198 
   10900    789920.75    301.14334   -541.59828     112.2795    83.609946    84.144381    541.59828    0.2328664 
   10920    790217.95    301.42351    -291.1639    112.32362    83.571082    84.182106     291.1639   0.23335083 
   10940    790266.45    301.33985   -612.18721    112.36773    83.553598    84.171829    612.18721   0.23383526 
   10960    790010.32     302.4817    -635.6728    112.41185    83.529801    84.135488     635.6728   0.23431968 
   10980    789247.91    300.37771   -423.04718    112.45597     83.43805     84.11371    423.04718   0.23480411 
   11000    789037.85    302.04034   -489.69122    112.50009    83.426922    84.069557    489.69122   0.23528854 
   11020    789092.59    301.18163   -432.01484     112.5442    83.435003    84.034292    432.01484   0.23577296 
   11040    788678.54    300.87353   -230.30273    112.58832    83.422091     83.97028    230.30273   0.23625739 
   11060    789088.56    299.62876   -369.08782    112.63244    83.445503    83.957465    369.08782   0.23674182 
   11080    790112.21    300.66204   -552.09814    112.67656    83.506871    83.971709    552.09814   0.23722624 
   11100    790224.19     301.8886   -625.99707    112.72067    83.488033    83.969682    625.99707   0.23771067 
   11120    790534.56     300.2948   -543.45949    112.76479    83.495256    83.962533    543.45949    0.2381951 
   11140     790762.3    300.99063   -570.48812    112.80891    83.446934    84.002492    570.48812   0.23867952 
   11160    790845.87    300.29621   -553.52421    112.85303    83.426223    83.999374    553.52421   0.23916395 
   11180    790681.76    300.58356   -621.39743    112.89715    83.395326    83.980228    621.39743   0.23964838 
   11200    790942.36    299.71002   -323.00135    112.94126    83.409811    83.960508    323.00135   0.24013281 
   11220     791144.7    300.80563   -230.85143    112.98538    83.405742     83.95329    230.85143   0.24061723 
   11240    790560.39    300.37051   -316.99029     113.0295    83.405657    83.858626    316.99029   0.24110166 
   11260    791358.13    299.77291   -221.38715    113.07362    83.452849    83.863044    221.38715   0.24158609 
   11280    792328.15    300.17002   -671.99274    113.11773    83.548007    83.837496    671.99274   0.24207051 
   11300    792705.74    300.51796   -846.22007    113.16185    83.526689    83.866147    846.22007   0.24255494 
   11320    792181.13    299.64962   -674.85457    113.20597    83.466558    83.838339    674.85457   0.24303937 
   11340    792402.85    299.69362   -935.43432    113.25009    83.449984    83.845783    935.43432   0.24352379 
   11360    793196.44    299.56077   -778.89139     113.2942    83.433702    83.913445    778.89139   0.24400822 
   11380    793705.28    298.85585   -663.04528    113.33832    83.389979    83.978599    663.04528   0.24449265 
   11400    793466.96    299.77363   -323.69973    113.38244    83.332868    83.978231    323.69973   0.24497707 
   11420    793877.16    299.13461   -81.057355    113.42656     83.30825    84.013784    81.057355    0.2454615 
   11440     794256.5    300.67405   -461.84994    113.47068     83.31611    84.013322    461.84994   0.24594593 
   11460    794812.26    299.53672   -315.40511    113.51479    83.378278    83.976772    315.40511   0.24643035 
   11480    794845.48     298.8313   -411.38651    113.55891    83.375977    83.949971    411.38651   0.24691478 
   11500    795344.75    299.13057   -364.28494    113.60303    83.389685    83.956278    364.28494   0.24739921 
   11520     795800.7    298.32449   -444.88792    113.64715    83.417286    83.944012    444.88792   0.24788364 
   11540     795819.5    299.14386    -441.5929    113.69126     83.43199    83.898633     441.5929   0.24836806 
   11560    795850.54    299.65401   -343.24364    113.73538     83.41547    83.885968    343.24364   0.24885249 
   11580    795517.82    298.54513   -360.44479     113.7795    83.376202    83.857862    360.44479   0.24933692 
   11600    796056.15    298.40318   -482.68682    113.82362    83.441583    83.816357    482.68682   0.24982134 
   11620    796509.83    298.21604    -807.0222    113.86773    83.441132    83.832086     807.0222   0.25030577 
   11640     796169.8    298.70756   -706.27382    113.91185    83.374427    83.830861    706.27382    0.2507902 
   11660    795858.21    299.83937   -509.21549    113.95597    83.303172     83.83726    509.21549   0.25127462 
   11680    796379.23    298.49799   -443.98341    114.00009    83.337938    83.824696    443.98341   0.25175905 
   11700    796656.99    297.95969   -409.16514    114.04421    83.350852    83.808507    409.16514   0.25224348 
   11720    797196.77     298.5757    -402.6011    114.08832    83.355119     83.82857     402.6011    0.2527279 
   11740    797038.68    299.80163   -277.32639    114.13244     83.31209     83.82282    277.32639   0.25321233 
   11760    796987.72     301.0155   -139.03542    114.17656     83.27674    83.820639    139.03542   0.25369676 
   11780    797545.33    301.17283   -318.88758    114.22068    83.245099    83.878755    318.88758   0.25418118 
   11800    798110.02    300.34046   -277.58808    114.26479    83.191365    83.959931    277.58808   0.25466561 
   11820    798870.37    300.23224   -362.32397    114.30891     83.24285    83.955526    362.32397   0.25515004 
   11840    799082.03    301.23094   -520.49751    114.35303    83.261124    83.926947    520.49751   0.25563447 
   11860    799547.49    301.68681    -628.7635    114.39715    83.269479    83.935025     628.7635   0.25611889 
   11880    800235.22    301.20042    -690.0122    114.44126    83.304691    83.939341     690.0122   0.25660332 
   11900    800537.47    300.69624   -663.88792    114.48538    83.315152    83.928147    663.88792   0.25708775 
   11920    800375.96    300.80805   -520.18919     114.5295    83.302722    83.891407    520.18919   0.25757217 
   11940       800782    300.39891   -435.45649    114.57362    83.298134    83.906267    435.45649    0.2580566 
   11960    801232.26    299.39692   -491.42102    114.61774    83.295048    83.924241    491.42102   0.25854103 
   11980    801729.33    300.62806   -159.35327    114.66185    83.324525    83.914299    159.35327   0.25902545 
   12000    802072.08    300.54528   -346.39672    114.70597    83.337559     83.90476    346.39672   0.25950988 
   12020       802268    300.09042   -199.25065    114.75009    83.337275    83.893275    199.25065   0.25999431 
   12040    802368.27    300.45831   -119.97628    114.79421     83.33402     83.87479    119.97628   0.26047873 
   12060     802747.1     301.2421   -196.29945    114.83832    83.363689    83.852299    196.29945   0.26096316 
   12080    803502.46    299.54242   -648.06723    114.88244    83.412668    83.849705    648.06723   0.26144759 
   12100     803688.5    298.19946   -571.13838    114.92656    83.462833    83.786535    571.13838   0.26193201 
   12120    804072.18    299.62424   -626.71178    114.97068    83.428959    83.828389    626.71178   0.26241644 
   12140    804642.66    299.66274    -651.3752    115.01479    83.429942      83.8547     651.3752   0.26290087 
   12160    805279.07    299.15863   -671.78179    115.05891     83.37207    83.947075    671.78179    0.2633853 
   12180    805198.83    299.76789   -308.38291    115.10303     83.38107     83.89748    308.38291   0.26386972 
   12200    805905.47    299.55147   -374.75742    115.14715    83.385793    83.934182    374.75742   0.26435415 
   12220    805875.27    300.30187   -291.25575    115.19126    83.372684    83.912082    291.25575   0.26483858 
   12240    805135.71    300.89541    25.065724    115.23538     83.28226    83.893968   -25.065724     0.265323 
   12260    804692.95    299.29202   -162.63987     115.2795    83.234784    83.863552    162.63987   0.26580743 
   12280    804609.67    301.56563   -223.88021    115.32362     83.19213    83.865771    223.88021   0.26629186 
   12300    803836.41    301.16694   -37.079389    115.36774    83.207033    83.738132    37.079389   0.26677628 
   12320    803663.31     300.7914   -324.69017    115.41185    83.207409    83.687719    324.69017   0.26726071 
   12340    803709.67    300.34361   -609.31514    115.45597    83.210871    83.657084    609.31514   0.26774514 
   12360    803799.92    299.48295   -674.72627    115.50009    83.160153    83.685528    674.72627   0.26822956 
   12380    804244.46    300.45052   -658.02931    115.54421    83.186214    83.673617    658.02931   0.26871399 
   12400     804415.5    301.42945   -703.60731    115.58832    83.165293    83.680515    703.60731   0.26919842 
   12420    804290.45    300.05116   -722.98815    115.63244    83.148598    83.652376    722.98815   0.26968284 
   12440    804390.67    300.00272   -377.15445    115.67656    83.137539    83.642017    377.15445   0.27016727 
   12460    804612.46    299.86429   -440.89447    115.72068    83.164612    83.605957    440.89447    0.2706517 
   12480    804922.67    300.61209   -418.61526    115.76479    83.171407    83.599486    418.61526   0.27113613 
   12500    804847.74    298.98063   -67.302268    115.80891    83.166162    83.565129    67.302268   0.27162055 
   12520       804471    300.47856   -186.26009    115.85303    83.127887     83.53265    186.26009   0.27210498 
   12540    805110.66    300.03219   -288.91679    115.89715    83.176318    83.518587    288.91679   0.27258941 
   12560    806108.78    300.01748   -610.09299    115.94127    83.249111    83.517216    610.09299   0.27307383 
   12580    807005.76    300.64397   -731.33792    115.98538    83.224977    83.602582    731.33792   0.27355826 
   12600    807084.45    299.51079   -433.83714     116.0295    83.207732    83.596265    433.83714   0.27404269 
   12620    807370.15    300.75416   -594.49381    116.07362    83.148284    83.653839    594.49381   0.27452711 
   12640    808415.54    299.70192   -506.38653    116.11774    83.185465    83.692905    506.38653   0.27501154 
   12660    808391.71    298.73589   -620.94953    116.16185    83.107243    83.737394    620.94953   0.27549597 
   12680    807456.62    300.63691   -394.28815    116.20597     83.02881    83.687759    394.28815   0.27598039 
   12700    807531.54    299.95829   -290.34788    116.25009    82.989221    83.703671    290.34788   0.27646482 
   12720    807175.18    299.83434   -443.84617    116.29421    83.032472    83.591429    443.84617   0.27694925 
   12740    807664.85    299.03338   -373.90092    116.33832    83.073692    83.568934    373.90092   0.27743367 
   12760     808189.9    299.47426   -457.70295    116.38244    83.119697    83.545295    457.70295    0.2779181 
   12780    808609.46    299.75049   -647.02543    116.42656    83.086796    83.590079    647.02543   0.27840253 
   12800    808393.75    297.80593   -461.88739    116.47068    83.125337    83.497395    461.88739   0.27888696 
   12820    807854.97     299.9922   -214.19771     116.5148    83.105279    83.430282    214.19771   0.27937138 
   12840    807978.24    299.96572   -95.724928    116.55891    83.097897     83.41884    95.724928   0.27985581 
   12860    808682.15    299.78321   -548.88295    116.60303    83.075311    83.482614    548.88295   0.28034024 
   12880    808116.29    298.18605   -594.88577    116.64715    82.961095    83.507457    594.88577   0.28082466 
   12900    808041.38    300.06923   -105.45107    116.69127    82.894939    83.534761    105.45107   0.28130909 
   12920    809227.24    300.37848    -466.3948    116.73538    82.951305    83.568914     466.3948   0.28179352 
   12940    809826.53     302.0793   -414.34281     116.7795    82.991606    83.558612    414.34281   0.28227794 
   12960    810268.62    299.55749   -200.08929    116.82362    83.001207    83.562988    200.08929   0.28276237 
   12980    811163.68    301.17414   -241.39087    116.86774    83.036349    83.588325    241.39087    0.2832468 
   13000    811443.53    301.23456   -298.67742    116.91185    83.075608    83.546109    298.67742   0.28373122 
   13020    811426.44    300.40338   -250.85218    116.95597    83.106436    83.481855    250.85218   0.28421565 
[...]
   36740    1185093.9     300.3086    72.213952    169.27954    83.976654    83.366142   -72.213952   0.85874593 
   36760    1185451.6    298.98825    108.53562    169.32366    83.973211    83.372998   -108.53562   0.85923035 
   36780    1186200.9    299.74817   -23.956672    169.36778    83.974668    83.402519    23.956672   0.85971478 
   36800    1186451.1    299.53796   -43.517316    169.41189    83.955722    83.417206    43.517316   0.86019921 
   36820    1186708.5    298.02144   -381.40301    169.45601    83.922991    83.446111    381.40301   0.86068363 
   36840      1186218    298.30275   -120.84303    169.50013    83.903575    83.409214    120.84303   0.86116806 
   36860    1187306.8    300.29589   -242.86703    169.54425    83.907935    83.459708    242.86703   0.86165249 
   36880    1188292.3    298.25608   -201.36811    169.58837    83.917569    83.497663    201.36811   0.86213692 
   36900    1187517.8    300.80746    62.539753    169.63248    83.893056    83.445917   -62.539753   0.86262134 
   36920    1186983.6    299.75929    19.956622     169.6766      83.9014    83.378399   -19.956622   0.86310577 
   36940      1187886    300.27625   -23.528439    169.72072    83.961542     83.36034    23.528439    0.8635902 
   36960    1188463.2    300.54324     22.82185    169.76484    83.961211    83.379504    -22.82185   0.86407462 
   36980    1188538.3     299.5563    21.794491    169.80895    83.944437    83.379768   -21.794491   0.86455905 
   37000    1188616.7    301.58349   -23.475602    169.85307    83.945023    83.363023    23.475602   0.86504348 
   37020    1188770.1    300.91057    -148.5836    169.89719    83.923294    83.373716     148.5836    0.8655279 
   37040    1187868.9    300.45703    -1.193617    169.94131    83.871157    83.340655     1.193617   0.86601233 
   37060      1188095    301.91986   -338.61957    169.98542    83.867293    83.338729    338.61957   0.86649676 
   37080    1189009.6    299.44111    -364.0869    170.02954    83.916464    83.332381     364.0869   0.86698118 
   37100    1188993.7    301.73168   -153.52268    170.07366    83.889321    83.336605    153.52268   0.86746561 
   37120    1188942.8    301.00442   -62.447892    170.11778    83.856765    83.343771    62.447892   0.86795004 
   37140    1189233.8    301.65614   -168.53423     170.1619    83.831223    83.367948    168.53423   0.86843446 
   37160    1189765.3    300.63041   -75.711692    170.20601    83.850473    83.364451    75.711692   0.86891889 
   37180    1189418.4    300.13034    323.46313    170.25013    83.786166    83.382492   -323.46313   0.86940332 
   37200    1188944.9    300.08609    339.38276    170.29425    83.752346    83.361352   -339.38276   0.86988775 
   37220    1190253.9    301.26691    324.38025    170.33837    83.790596    83.393435   -324.38025   0.87037217 
   37240    1191641.7    300.88665    68.682817    170.38248     83.84153    83.418341   -68.682817    0.8708566 
   37260    1192724.3    299.65306   -251.15284     170.4266    83.860478    83.453655    251.15284   0.87134103 
   37280      1192986    299.23074   -394.72425    170.47072    83.883002    83.427951    394.72425   0.87182545 
   37300    1193583.2    299.52698   -359.07908    170.51484    83.937903    83.393539    359.07908   0.87230988 
   37320    1193293.8    299.55364   -277.20999    170.55895     83.94108      83.3486    277.20999   0.87279431 
   37340    1193269.5    299.76202   -184.67367    170.60307    83.923148    83.343153    184.67367   0.87327873 
   37360    1193347.1    299.65224   -202.67082    170.64719    83.940383    83.309918    202.67082   0.87376316 
   37380    1193746.6    299.70371   -193.21439    170.69131    83.985935    83.271077    193.21439   0.87424759 
   37400      1193551    302.12215   -3.0427385    170.73543    83.969911    83.251803    3.0427385   0.87473201 
   37420    1194324.4    299.39091    126.86173    170.77954    83.957245    83.296792   -126.86173   0.87521644 
   37440    1194433.7    300.23283    152.83375    170.82366     83.93652    83.303464   -152.83375   0.87570087 
   37460    1196093.9    300.02973   -59.668277    170.86778    83.977287    83.357227    59.668277   0.87618529 
   37480    1195701.4     299.5028   -139.98728     170.9119    83.976079    83.309562    139.98728   0.87666972 
   37500    1195336.8    299.95618     -37.9841    170.95601    83.947129    83.291382      37.9841   0.87715415 
   37520    1194536.7    300.56896    23.845265    171.00013    83.875427    83.285295   -23.845265   0.87763858 
   37540    1194677.1    298.70034   -8.2221069    171.04425    83.833208    83.315532    8.2221069     0.878123 
   37560    1195319.3    299.73593   -6.8829159    171.08837    83.832157     83.33987    6.8829159   0.87860743 
   37580    1195853.6    299.05623   -136.60388    171.13248    83.802626    83.385002    136.60388   0.87909186 
   37600    1195803.6    298.45176   -166.92085     171.1766    83.744293     83.41809    166.92085   0.87957628 
   37620    1196194.3    299.76019   -165.63488    171.22072    83.713581     83.45445    165.63488   0.88006071 
   37640    1196685.3    299.66333    73.801893    171.26484    83.751425    83.429483   -73.801893   0.88054514 
   37660    1195593.3    298.90443    261.30398    171.30896     83.70645    83.376659   -261.30398   0.88102956 
   37680      1196184    298.40265    82.794821    171.35307    83.725376    83.377522   -82.794821   0.88151399 
   37700      1197588    298.24859    93.003508    171.39719     83.78911    83.390422   -93.003508   0.88199842 
   37720    1197693.9    299.81217   -13.640625    171.44131    83.816319    83.349269    13.640625   0.88248284 
   37740    1197700.5    298.06511    55.374613    171.48543    83.809432    83.335128   -55.374613   0.88296727 
   37760    1198864.5     298.8515   -192.05823    171.52954    83.800294    83.403763    192.05823    0.8834517 
   37780    1199274.8    299.09663   -218.14908    171.57366     83.77047    83.440545    218.14908   0.88393612 
   37800    1198809.8    298.88376   -138.45661    171.61778    83.714486    83.442519    138.45661   0.88442055 
   37820    1198477.7    299.79954   -346.14034     171.6619    83.677182    83.435143    346.14034   0.88490498 
   37840    1198623.5    299.60317   -126.54411    171.70601    83.683782    83.417274    126.54411   0.88538941 
   37860    1198792.9     299.1896   -139.90545    171.75013    83.732272    83.359331    139.90545   0.88587383 
   37880    1198832.3    302.20996    96.620394    171.79425    83.686198    83.386546   -96.620394   0.88635826 
   37900    1198810.1    301.14388    339.98185    171.83837    83.641628    83.408015   -339.98185   0.88684269 
   37920    1198276.9    300.69768    296.36131    171.88248     83.60696    83.384075   -296.36131   0.88732711 
   37940    1199294.9    300.31632    264.44726     171.9266    83.658613    83.381986   -264.44726   0.88781154 
   37960    1200043.4    301.48822    86.526792    171.97072    83.661137     83.41011   -86.526792   0.88829597 
   37980    1201146.2     301.7189   -172.49544    172.01484    83.699931     83.42666    172.49544   0.88878039 
   38000    1200950.8    301.45617    -118.8522    172.05896    83.662009    83.429497     118.8522   0.88926482 
   38020    1200287.5     300.7826   -384.76432    172.10307     83.63929     83.38469    384.76432   0.88974925 
   38040    1201492.7    300.00052   -270.14359    172.14719     83.69159     83.39488    270.14359   0.89023367 
   38060    1201788.4    300.98483   -296.70111    172.19131    83.721741    83.363995    296.70111    0.8907181 
   38080    1201227.9    300.36447    -330.6772    172.23543    83.688275    83.337088     330.6772   0.89120253 
   38100      1201797    300.49135   -166.06769    172.27954    83.685487    83.357991    166.06769   0.89168695 
   38120    1201487.2    300.64574   -204.17903    172.32366    83.687887    83.312778    204.17903   0.89217138 
   38140    1201513.5    299.00066    21.442899    172.36778    83.697917    83.283296   -21.442899   0.89265581 
   38160    1202097.3    299.90428    121.69763     172.4119    83.745799    83.254814   -121.69763   0.89314024 
   38180    1203679.2    300.98583    204.65006    172.45601    83.815959    83.273285   -204.65006   0.89362466 
   38200    1204137.9    300.52613    91.061002    172.50013    83.808858    83.290769   -91.061002   0.89410909 
   38220    1204205.6    298.57673    29.128857    172.54425      83.7808     83.30204   -29.128857   0.89459352 
   38240    1205457.9    300.79242   -30.484162    172.58837    83.840145    83.308343    30.484162   0.89507794 
   38260    1205681.4    300.59961   -127.90564    172.63249    83.832305     83.31029    127.90564   0.89556237 
   38280    1205514.4    299.65302   -90.719108     172.6766    83.810517    83.299112    90.719108    0.8960468 
   38300      1206005     300.3378   -155.14422    172.72072    83.825355    83.296981    155.14422   0.89653122 
   38320    1206075.1    299.66789   -148.27446    172.76484    83.807777    83.298016    148.27446   0.89701565 
   38340    1205374.6     299.9783   -45.867767    172.80896    83.736387    83.299344    45.867767   0.89750008 
   38360    1206790.8    299.17031   -42.734798    172.85307    83.786124    83.326431    42.734798    0.8979845 
   38380      1208245    298.95519    143.11891    172.89719    83.842487    83.349487   -143.11891   0.89846893 
   38400    1208740.7    298.75274    86.623091    172.94131    83.847612    83.357311   -86.623091   0.89895336 
   38420    1208651.8    299.22667    103.55128    172.98543    83.786324    83.390877   -103.55128   0.89943778 
   38440    1209848.9    299.72674   -118.08262    173.02954     83.80301    83.435576    118.08262   0.89992221 
   38460    1210446.5    298.86624   -128.83164    173.07366    83.797307    83.461187    128.83164   0.90040664 
   38480    1210422.2    302.39966   -7.3190477    173.11778    83.803589     83.43199    7.3190477   0.90089107 
   38500      1210767     302.2944   -130.79794     173.1619    83.822862    83.415307    130.79794   0.90137549 
   38520    1212128.7    300.50964   -244.05151    173.20602    83.912249    83.398914    244.05151   0.90185992 
   38540    1211274.9    302.48392   -299.28011    173.25013    83.885407     83.34561    299.28011   0.90234435 
   38560    1212430.6    302.26897   -114.37038    173.29425    83.911513    83.377946    114.37038   0.90282877 
   38580    1212810.9    302.28662    109.19024    173.33837    83.945371    83.349241   -109.19024    0.9033132 
   38600    1212280.7    302.34791     248.0957    173.38249    83.935414    83.301479    -248.0957   0.90379763 
   38620    1212302.3      301.451    170.02069     173.4266    83.918128    83.298928   -170.02069   0.90428205 
   38640    1212364.8    301.94504   -20.903385    173.47072    83.936043    83.264265    20.903385   0.90476648 
   38660    1212387.1    301.21546    111.04918    173.51484     83.96223    83.218661   -111.04918   0.90525091 
   38680    1211974.1    300.98016    80.211888    173.55896    83.906188    83.224717   -80.211888   0.90573533 
   38700    1213024.7    301.21494   -46.519823    173.60307    83.961786    83.220548    46.519823   0.90621976 
   38720    1213417.5    301.61451   -326.73849    173.64719     83.97567    83.212584    326.73849   0.90670419 
   38740    1212340.7    302.81769   -411.51182    173.69131    83.966363    83.126838    411.51182   0.90718861 
   38760    1212993.8    300.56387   -129.68433    173.73543    83.990037    83.127059    129.68433   0.90767304 
   38780    1213709.5    299.80894   -237.18763    173.77955    83.994607    83.150467    237.18763   0.90815747 
   38800      1214006    300.18605   -114.63599    173.82366    83.947874    83.195962    114.63599    0.9086419 
   38820    1213842.9    300.39362    8.9512414    173.86778    83.949186    83.162372   -8.9512414   0.90912632 
   38840    1212749.3    300.57204   -125.43636     173.9119    83.903296    83.111803    125.43636   0.90961075 
   38860    1212674.5    299.83776    24.460757    173.95602    83.847392    83.141001   -24.460757   0.91009518 
   38880    1212821.3    300.24864   -41.317245    174.00013    83.810845    83.166227    41.317245    0.9105796 
   38900    1215100.4    299.25023   -111.74074    174.04425    83.886097    83.226663    111.74074   0.91106403 
   38920    1215242.6    299.55124   -214.57443    174.08837    83.884765    83.216631    214.57443   0.91154846 
   38940    1212948.7    301.03897   -52.262553    174.13249    83.804198    83.118339    52.262553   0.91203288 
   38960      1213768    300.68789    6.7795721     174.1766    83.817598    83.140118   -6.7795721   0.91251731 
   38980      1215161    300.28562    -229.9075    174.22072    83.855059    83.177286     229.9075   0.91300174 
   39000    1215911.5     300.0276    155.11385    174.26484    83.869119    83.193637   -155.11385   0.91348616 
   39020    1216519.7     299.3124    85.170337    174.30896    83.881511    83.201889   -85.170337   0.91397059 
   39040    1217492.2    299.72502   -74.271265    174.35308    83.912253    83.216837    74.271265   0.91445502 
   39060    1217859.1    299.54582    51.061562    174.39719    83.905548    83.227503   -51.061562   0.91493944 
   39080    1218754.4    299.40336   -171.88048    174.44131     83.89749    83.275625    171.88048   0.91542387 
   39100    1220186.1     298.7265    17.544581    174.48543    83.921593    83.328427   -17.544581    0.9159083 
   39120    1219636.8    299.27541    3.0769609    174.52955    83.896837     83.29443   -3.0769609   0.91639273 
   39140    1219349.1    301.08707   -71.733408    174.57366    83.889573     83.26095    71.733408   0.91687715 
   39160    1219661.6    299.66781   -223.52298    174.61778     83.85091    83.299636    223.52298   0.91736158 
   39180    1220933.5    300.33714   -314.33695     174.6619    83.883757      83.3328    314.33695   0.91784601 
   39200    1220255.1    298.95986    168.55896    174.70602    83.869659    83.279459   -168.55896   0.91833043 
   39220    1219420.1     299.2057    122.84312    174.75013    83.875593    83.195574   -122.84312   0.91881486 
   39240    1219940.6     299.4804    202.68173    174.79425    83.898041    83.187816   -202.68173   0.91929929 
   39260    1220949.4    299.29253    27.497925    174.83837    83.915986    83.217796   -27.497925   0.91978371 
   39280    1220548.2    298.93096    25.673906    174.88249    83.865103    83.219927   -25.673906   0.92026814 
   39300    1220402.3    297.81784  -0.89290092     174.9266    83.807074    83.246592   0.89290092   0.92075257 
   39320    1218997.6    298.91664   -48.545912    174.97072     83.76287    83.173678    48.545912   0.92123699 
   39340    1218056.4    300.16857   -97.938062    175.01484    83.741316    83.109895    97.938062   0.92172142 
   39360      1217329    298.58549   -162.04009    175.05896    83.685286     83.09493    162.04009   0.92220585 
   39380    1218724.7    300.60676   -483.69694    175.10308    83.699276    83.155339    483.69694   0.92269027 
   39400    1217676.2     299.9168   -311.53745    175.14719    83.657858    83.103993    311.53745    0.9231747 
   39420    1216923.6    302.19273   -272.66823    175.19131    83.647677     83.04182    272.66823   0.92365913 
   39440    1217564.9    301.74607   -177.88025    175.23543    83.639146    83.073136    177.88025   0.92414356 
   39460    1217788.2    300.71949   -214.45296    175.27955    83.646102    83.060552    214.45296   0.92462798 
   39480    1219207.4    300.79306   -86.386297    175.32366    83.703692    83.079229    86.386297   0.92511241 
   39500    1220301.6    301.17455    15.138127    175.36778    83.726914    83.109811   -15.138127   0.92559684 
   39520      1221342    301.57053    171.79128     175.4119    83.716904    83.169692   -171.79128   0.92608126 
   39540    1221209.2    301.83572    162.49691    175.45602    83.788482    83.068713   -162.49691   0.92656569 
   39560    1221942.5    299.42505   -44.854006    175.50013    83.803275    83.083032    44.854006   0.92705012 
   39580    1223804.7    299.48536    33.346788    175.54425    83.870679    83.121874   -33.346788   0.92753454 
   39600    1224322.5     300.0957   -38.926494    175.58837    83.833706    83.172815    38.926494   0.92801897 
   39620    1225508.6    299.66756   -91.083552    175.63249     83.91673    83.150137    91.083552    0.9285034 
   39640      1225608    301.22364    -155.6279    175.67661    83.940879    83.112078     155.6279   0.92898782 
   39660      1225917    299.73555   -174.10447    175.72072    83.953425    83.099741    174.10447   0.92947225 
   39680    1226701.2    300.30674   -170.59023    175.76484    83.916399    83.168703    170.59023   0.92995668 
   39700    1227746.7    298.10553   -176.48429    175.80896    83.945176    83.190176    176.48429    0.9304411 
   39720    1228193.8    299.33969    57.508653    175.85308    83.961843    83.183075   -57.508653   0.93092553 
   39740    1228236.7    299.29372   -18.021301    175.89719    83.973796    83.153281    18.021301   0.93140996 
   39760    1227751.2    298.71079    96.694194    175.94131    83.890597     83.18198   -96.694194   0.93189439 
   39780    1227224.8      299.763    55.315691    175.98543    83.801079    83.214266   -55.315691   0.93237881 
   39800    1227998.9    299.80439    11.169071    176.02955    83.821701    83.225412   -11.169071   0.93286324 
   39820    1228983.4    299.71196   -48.230697    176.07366    83.843652    83.249461    48.230697   0.93334767 
   39840    1228583.3    300.12463   -44.430178    176.11778    83.817692    83.227278    44.430178   0.93383209 
   39860      1228961    300.80816   -27.300239     176.1619    83.829472    83.220318    27.300239   0.93431652 
   39880      1228915    299.91265    107.73435    176.20602    83.858724    83.167348   -107.73435   0.93480095 
   39900    1229832.9    300.45459   -283.37396    176.25014    83.859367    83.207995    283.37396   0.93528537 
   39920    1230940.8    301.10616   -254.26405    176.29425    83.840554    83.280799    254.26405    0.9357698 
   39940    1231181.5    301.63866   -140.48199    176.33837    83.843266    83.273548    140.48199   0.93625423 
   39960    1231432.5    301.14992   -125.67233    176.38249    83.882499    83.230744    125.67233   0.93673865 
   39980      1231559    300.56295   -137.54893    176.42661    83.916285    83.184976    137.54893   0.93722308 
   40000    1232191.8    300.69356   -71.182324    176.47072    83.921712    83.201529    71.182324   0.93770751 
Loop time of 2651.38 on 64 procs for 40000 steps with 64040 atoms

Performance: 1.303 ns/day, 18.412 hours/ns, 15.086 timesteps/s
99.7% CPU use with 64 MPI tasks x 1 OpenMP threads

MPI task timing breakdown:
Section |  min time  |  avg time  |  max time  |%varavg| %total
---------------------------------------------------------------
Pair    | 214.45     | 679.36     | 1021.5     | 855.3 | 25.62
Bond    | 18.183     | 50.501     | 67.784     | 200.7 |  1.90
Kspace  | 125.59     | 483.19     | 981.05     |1079.6 | 18.22
Neigh   | 1306.3     | 1329.7     | 1344.7     |  28.3 | 50.15
Comm    | 55.537     | 76.849     | 109.75     | 146.1 |  2.90
Output  | 1.6611     | 1.6801     | 1.724      |   0.8 |  0.06
Modify  | 18         | 27.688     | 34.878     |  80.4 |  1.04
Other   |            | 2.445      |            |       |  0.09

Nlocal:        1000.62 ave        1760 max           0 min
Histogram: 12 2 2 1 3 12 7 5 4 16
Nghost:        9985.97 ave       17090 max        1272 min
Histogram: 9 7 0 0 1 22 9 0 0 16
Neighs:       671535.0 ave 1.42244e+06 max           0 min
Histogram: 15 1 2 5 10 8 6 2 8 7

Total # of neighbors = 42978217
Ave neighs/atom = 671.11519
Ave special neighs/atom = 5.8719550
Neighbor list builds = 40000
Dangerous builds not checked
Total wall time: 0:44:15
