LAMMPS (29 Oct 2020)
OMP_NUM_THREADS environment is not set. Defaulting to 1 thread. (../comm.cpp:94)
  using 1 OpenMP thread(s) per MPI task
####################################################
#    This program is free software: you can redistribute it and/or modify
#    it under the terms of the GNU General Public License as published by
#    the Free Software Foundation, either version 3 of the License, or
#    (at your option) any later version.
#
#    This program is distributed in the hope that it will be useful,
#    but WITHOUT ANY WARRANTY; without even the implied warranty of
#    MERCHANTABILITY or FITNESS FOR A PARTICULAR PURPOSE.  See the
#    GNU General Public License for more details.


units		real        ## defines the units style used herein. More information: https://docs.lammps.org/units.html
atom_style	full        ## defines the atom style used herein. More information: https://docs.lammps.org/atom_style.html

# Styles
pair_style      lj/cut/coul/long 15.0 10.0      ## sets the formula(s) LAMMPS uses to compute pairwise interactions; here, lennard-jones (LJ) with long-range Coulomb interaction. More: https://docs.lammps.org/pair_lj_cut_coul.html
pair_modify     shift no                        ## the shift keyword determines whether a Lennard-Jones potential is shifted at its cutoff to 0.0. More: https://docs.lammps.org/pair_modify.html
kspace_style    pppm 1.0e-4                     ## defines a long-range solver for LAMMPS to compute long-range Coulombic interactions. Note: requires use of a matching pair style, i.e. PPPM with coul/long. More: https://docs.lammps.org/kspace_style.html
bond_style      harmonic                        ## defined based off the forcefield used to construct the system; models the atoms' interactions
angle_style     harmonic
dihedral_style  opls
improper_style  cvff
special_bonds   lj 0 0 1 coul 0 0 1

read_data       300K_PS.lmps      ## input lammps datafile, equilibriated until structure nears experimental properties
Reading data file ...
  orthogonal box = (55.882319 55.882319 55.882319) to (144.11768 144.11768 144.11768)
  4 by 4 by 4 MPI processor grid
  reading atoms ...
  64040 atoms
  reading velocities ...
  64040 velocities
  scanning bonds ...
  2 = max bonds/atom
  scanning angles ...
  6 = max angles/atom
  scanning dihedrals ...
  12 = max dihedrals/atom
  scanning impropers ...
  3 = max impropers/atom
  reading bonds ...
  68020 bonds
  reading angles ...
  119880 angles
  reading dihedrals ...
  191660 dihedrals
  reading impropers ...
  51880 impropers
Finding 1-2 1-3 1-4 neighbors ...
  special bond factors lj:    0.0      0.0      1.0     
  special bond factors coul:  0.0      0.0      1.0     
     4 = max # of 1-2 neighbors
     8 = max # of 1-3 neighbors
    12 = max # of special neighbors
  special bonds CPU = 1.563 seconds
  read_data CPU = 3.275 seconds

dielectric      1.0
neighbor    	1.0 bin
neigh_modify	delay 0 every 1 check no        ## this is to make sure that the neighbor list is updated every timestep, and the atoms don't get lost as the system is being deformed ##

timestep	    1.0                             ## unit = fs, per "real" unit style
run_style       verlet                          ## defines algorithm used for simulation computation; verlet integration is a numerical method used to integrate Newton's equations of motion.

variable stress equal press*-1                         ## computes stress as the negative of press values
variable engStrain equal (lx-91.07191)/91.07191      ## computes engineering strain; lx_0 must be found and inputted manually (for now)

thermo		    20                                                               ## output log data (headers in thermo_style), recorded at every timestep in numList.txt
thermo_style    custom step vol temp press lx ly lz v_stress v_engStrain         ## data headers of output log file. More: https://docs.lammps.org/thermo_style.html

################# Deformation ##################

fix 1 all npt temp 300 300 100 y 1 1 100.0 z 1 1 100.0      ## stress normal to the x direction can vary; external pressure (y and z) = 1atm ##

fix 2 all deform 1 x scale 2.0 remap x                      ## sets a uniaxial (x-direction) deformation in motion, scaling a set amount (here, 4.0x) the initial length


################# Dumping ##################

reset_timestep 0

dump dump2 all custom 20000 sim.lammpstrj id mol type q xs ys zs ix iy iz

restart 40000 PS.restart

run 		400000              ## this depends on the overall strain rate, where strain rate = deformScale / runTimeSteps (consider units!)
PPPM initialization ...
WARNING: System is not charge neutral, net charge = -8.9366436e-05 (../kspace.cpp:313)
  using 12-bit tables for long-range coulomb (../kspace.cpp:328)
  G vector (1/distance) = 0.20517083
  grid = 24 24 24
  stencil order = 5
  estimated absolute RMS force accuracy = 0.022734637
  estimated relative force accuracy = 6.8464684e-05
  using double precision FFTW3
  3d grid and FFT values/proc = 1331 216
Neighbor list info ...
  update every 1 steps, delay 0 steps, check no
  max neighbors/atom: 2000, page size: 100000
  master list distance cutoff = 16
  ghost atom cutoff = 16
  binsize = 8, bins = 12 12 12
  1 neighbor lists, perpetual/occasional/extra = 1 0 0
  (1) pair lj/cut/coul/long, perpetual
      attributes: half, newton on
      pair build: half/bin/newton
      stencil: half/bin/3d/newton
      bin: standard
Per MPI rank memory allocation (min/avg/max) = 18.47 | 18.74 | 18.89 Mbytes
Step Volume Temp Press Lx Ly Lz v_stress v_engStrain 
       0    686954.56     301.6084    15618.815    88.235362    88.235362    88.235362   -15618.815 -0.031146246 
      20    692326.08    309.98486    3282.6474    88.239774    88.547113     88.60779   -3282.6474 -0.031097803 
      40    697093.34    307.33469    342.99113    88.244185    88.850022    88.909322   -342.99113 -0.031049361 
      60    695218.85    306.32931    -57.83688    88.248597    88.716579    88.799176     57.83688 -0.031000918 
      80    693209.19    303.93099   -70.535517    88.253009    88.566635    88.687956    70.535517 -0.030952475 
     100    693135.92    305.97578   -345.23182    88.257421     88.55375    88.687052    345.23182 -0.030904033 
     120    689719.79    305.08393   -497.76315    88.261832    88.338668      88.4604    497.76315  -0.03085559 
     140    690518.56    304.56786   -128.91143    88.266244    88.347129    88.549939    128.91143 -0.030807147 
     160    691992.21    303.36431   -1022.7488    88.270656    88.447534     88.63375    1022.7488 -0.030758704 
     180    692218.45    302.84558   -500.32678    88.275068    88.446471    88.659361    500.32678 -0.030710262 
     200     691379.1    304.01421    702.54949     88.27948    88.373514    88.620533   -702.54949 -0.030661819 
     220    692356.57    301.94194   -367.34052    88.283891    88.427677    88.687035    367.34052 -0.030613376 
     240    693839.17    301.78504    178.99857    88.288303    88.556269    88.743456   -178.99857 -0.030564934 
     260    692755.24    301.41601   -27.541809    88.292715    88.453872    88.702958    27.541809 -0.030516491 
     280    693373.28    302.04692    316.59453    88.297127    88.512325    88.719029   -316.59453 -0.030468048 
     300    694525.59    300.05278     315.7459    88.301538    88.598914    88.775184    -315.7459 -0.030419606 
     320    694304.69    299.20201    5.4785131     88.30595    88.574877    88.766597   -5.4785131 -0.030371163 
     340    694257.15    298.48595    603.13367    88.310362    88.553808    88.777202   -603.13367  -0.03032272 
     360    694982.39     301.0889   -576.36166    88.314774    88.618347    88.800783    576.36166 -0.030274278 
     380    695838.41    301.15678   -3.0487516    88.319185    88.680349    88.843559    3.0487516 -0.030225835 
     400    695679.67    299.15632   -268.98372    88.323597    88.650737    88.848524    268.98372 -0.030177392 
     420    695448.14    299.52222   -723.51929    88.328009    88.607369    88.857987    723.51929  -0.03012895 
     440    695253.39    298.75804    283.48806    88.332421    88.596201    88.839864   -283.48806 -0.030080507 
     460    695457.85    297.81609   -64.723246    88.336833    88.585182    88.872605    64.723246 -0.030032064 
     480    695373.77    299.68438    267.45515    88.341244    88.569737    88.872917   -267.45515 -0.029983621 
     500    695012.71    299.37455    217.34405    88.345656    88.548311    88.843827   -217.34405 -0.029935179 
     520    694974.49    299.28425    435.79843    88.350068    88.568952    88.813804   -435.79843 -0.029886736 
     540    694714.86     298.4326    318.23107     88.35448    88.565869    88.779282   -318.23107 -0.029838293 
     560    694768.85    297.56271   -34.985317    88.358891    88.526868    88.820862    34.985317 -0.029789851 
     580    694666.52    299.95209   -31.467485    88.363303    88.467919    88.862518    31.467485 -0.029741408 
     600    693868.61    301.01013   -388.75038    88.367715    88.391627    88.832624    388.75038 -0.029692965 
     620     693863.2    299.37163   -452.16383    88.372127    88.358759    88.860539    452.16383 -0.029644523 
     640    693427.59    299.54497    200.38236    88.376538    88.285273    88.874234   -200.38236  -0.02959608 
     660     693805.1    300.88033    259.16135     88.38095    88.330113     88.87304   -259.16135 -0.029547637 
     680    693889.34     300.5549    65.516826    88.385362    88.332384    88.877109   -65.516826 -0.029499195 
     700    694056.83    300.90458    214.89603    88.389774     88.35368    88.872698   -214.89603 -0.029450752 
     720    694486.68    300.79641    299.14415    88.394186    88.410737    88.865915   -299.14415 -0.029402309 
     740    694385.38    300.96893    12.785637    88.398597    88.471508    88.787486   -12.785637 -0.029353867 
     760    694282.47    299.86391    105.03209    88.403009    88.451376    88.790102   -105.03209 -0.029305424 
     780    694076.35    299.60696    113.75403    88.407421     88.47277     88.73785   -113.75403 -0.029256981 
     800    694472.12    300.30211   -162.30547    88.411833    88.492127    88.764598    162.30547 -0.029208538 
     820    695100.84    300.61934    -178.4248    88.416244    88.571625    88.760786     178.4248 -0.029160096 
     840    694557.92    300.24734   -141.53136    88.420656    88.530419    88.728311    141.53136 -0.029111653 
     860     694959.9    300.35247    363.78098    88.425068    88.499702    88.806046   -363.78098  -0.02906321 
     880    695257.94    300.07714   -400.90684     88.42948    88.550545    88.788691    400.90684 -0.029014768 
     900    695653.54    299.40533    -163.9949    88.433891    88.615919    88.769244     163.9949 -0.028966325 
     920    695732.73    300.38804   -241.29774    88.438303    88.596239    88.794639    241.29774 -0.028917882 
     940    695264.58    300.44158   -316.52229    88.442715     88.56462    88.762143    316.52229  -0.02886944 
     960    695162.84    299.77857    256.86321    88.447127    88.615453     88.69382   -256.86321 -0.028820997 
     980    694684.93    299.80711    82.157169    88.451539    88.548571    88.695365   -82.157169 -0.028772554 
    1000    695327.59    298.85493    266.80918     88.45595    88.632979     88.68845   -266.80918 -0.028724112 
    1020    695386.92    299.96133   -17.846451    88.460362    88.619904    88.704679    17.846451 -0.028675669 
    1040    695356.21    298.99784    153.21325    88.464774    88.633033      88.6832   -153.21325 -0.028627226 
    1060    695739.43    298.97351    14.806607    88.469186     88.57234     88.78845   -14.806607 -0.028578784 
    1080     695487.5    299.49118   -410.88933    88.473597    88.580434    88.743763    410.88933 -0.028530341 
    1100     695380.3     299.1528    310.12083    88.478009    88.577395    88.728704   -310.12083 -0.028481898 
    1120    695639.49    300.20547   -94.437205    88.482421    88.654943    88.679713    94.437205 -0.028433455 
    1140    696115.55    298.96542   -314.95544    88.486833    88.686931     88.70397    314.95544 -0.028385013 
    1160    696332.07    300.15574    225.83686    88.491244    88.721173    88.692892   -225.83686  -0.02833657 
    1180       695836    299.05739   -303.79453    88.495656    88.660062    88.686376    303.79453 -0.028288127 
    1200    696162.46    300.82182    477.94265    88.500068    88.684547    88.699066   -477.94265 -0.028239685 
    1220    696282.17    299.20184    300.93953     88.50448    88.693061     88.70138   -300.93953 -0.028191242 
    1240    696579.61    299.95554    383.16768    88.508892    88.694483    88.733426   -383.16768 -0.028142799 
    1260    696486.78    300.00275    460.35091    88.513303    88.661102    88.750581   -460.35091 -0.028094357 
    1280     696293.1    299.48417   -112.10321    88.517715    88.621485    88.761141    112.10321 -0.028045914 
    1300     696145.5    300.64035    560.33354    88.522127    88.618334    88.741057   -560.33354 -0.027997471 
    1320    696257.18    300.57425   -358.14276    88.526539    88.681998    88.687157    358.14276 -0.027949029 
    1340    696559.42    300.83964   -254.76258     88.53095    88.709595    88.693633    254.76258 -0.027900586 
    1360    696317.07     301.3903   -314.35512    88.535362    88.728021    88.639946    314.35512 -0.027852143 
    1380    696180.01    301.18797   -724.46316    88.539774    88.756258    88.589889    724.46316 -0.027803701 
    1400    696277.26    300.65417   -136.94591    88.544186    88.709111    88.644937    136.94591 -0.027755258 
    1420    695658.37    300.76367   -64.380059    88.548597    88.647863    88.622921    64.380059 -0.027706815 
    1440    696854.45    301.48413    108.51852    88.553009    88.780579     88.63817   -108.51852 -0.027658372 
    1460    697488.04     301.0315    1.6725227    88.557421    88.814971    88.679988   -1.6725227  -0.02760993 
    1480    697454.04    300.14825    165.34846    88.561833    88.732256    88.753906   -165.34846 -0.027561487 
    1500    696956.57    300.86447    474.76716    88.566244    88.635322    88.783172   -474.76716 -0.027513044 
    1520    697047.65    299.67521   -206.51649    88.570656    88.615677    88.810036    206.51649 -0.027464602 
    1540    697514.22    300.80153   -50.019768    88.575068    88.648646    88.832006    50.019768 -0.027416159 
    1560    697353.79    300.83651   -133.43502     88.57948    88.651404    88.804387    133.43502 -0.027367716 
    1580    697094.14    299.54434   -279.81354    88.583892    88.596422    88.821988    279.81354 -0.027319274 
    1600    697299.76    299.20208   -383.92266    88.588303    88.615289    88.824848    383.92266 -0.027270831 
    1620    696839.68    299.70511   -302.06512    88.592715     88.58778    88.789383    302.06512 -0.027222388 
    1640     697300.8    300.77823   -68.744819    88.597127    88.664535    88.766805    68.744819 -0.027173946 
    1660    697169.35     300.3962   -192.64697    88.601539    88.653373    88.756825    192.64697 -0.027125503 
    1680    696633.91    299.67457     196.6241     88.60595    88.609386    88.728266    -196.6241  -0.02707706 
    1700    696101.35    299.07533     431.5924    88.610362     88.57876    88.686674    -431.5924 -0.027028618 
    1720    696932.52     300.6156    203.49739    88.614774     88.64386    88.722942   -203.49739 -0.026980175 
    1740    697246.21    300.06586    476.76827    88.619186    88.644066    88.758253   -476.76827 -0.026931732 
    1760    696909.99    300.22031    83.286254    88.623597    88.627602    88.727515   -83.286254 -0.026883289 
    1780    696874.37    300.22289    183.81978    88.628009    88.589041     88.75718   -183.81978 -0.026834847 
    1800    697549.63    299.19865    -81.96922    88.632421     88.65816    88.769502     81.96922 -0.026786404 
    1820    698110.75    300.42633   -382.93345    88.636833    88.672686    88.821936    382.93345 -0.026737961 
    1840    697235.01    299.70246   -178.23446    88.641245    88.579866     88.79905    178.23446 -0.026689519 
    1860    696789.93    300.60325    100.69966    88.645656    88.527511    88.790428   -100.69966 -0.026641076 
    1880    696643.31    299.79355    284.39067    88.650068    88.531932    88.762894   -284.39067 -0.026592633 
    1900    697094.18     299.8175    93.108262     88.65448    88.556523    88.791259   -93.108262 -0.026544191 
    1920    696979.43    299.28717    47.440552    88.658892    88.499663     88.82926   -47.440552 -0.026495748 
    1940    696383.57    300.15136    239.74461    88.663303    88.449638    88.799096   -239.74461 -0.026447305 
    1960    696714.87    301.77273    294.62981    88.667715    88.530591    88.755688   -294.62981 -0.026398863 
    1980    697100.09    301.37672    452.09311    88.672127    88.578381    88.752434   -452.09311  -0.02635042 
    2000    697307.39    301.24914    418.04621    88.676539    88.578117    88.774676   -418.04621 -0.026301977 
    2020    697003.11     301.6426   -22.075232     88.68095    88.534466     88.77527    22.075232 -0.026253535 
    2040    696880.24    301.79262   -285.05572    88.685362    88.545083    88.744563    285.05572 -0.026205092 
    2060    697678.02    301.59813   -510.44756    88.689774    88.612081    88.774566    510.44756 -0.026156649 
    2080    697535.38    300.22753   -495.70513    88.694186     88.60879    88.755298    495.70513 -0.026108206 
    2100    697120.52    300.46637   -507.67597    88.698598    88.584146    88.722773    507.67597 -0.026059764 
    2120    697900.61    301.43345   -344.40853    88.703009     88.66326    88.738387    344.40853 -0.026011321 
    2140    697820.12    300.53377   -365.02689    88.707421    88.665879    88.721119    365.02689 -0.025962878 
    2160    697690.47      299.271   -74.890534    88.711833    88.609796    88.756364    74.890534 -0.025914436 
    2180    697760.95     299.7368    183.83097    88.716245     88.59242    88.778325   -183.83097 -0.025865993 
    2200    697286.61    299.28561    378.90023    88.720656    88.550855    88.755202   -378.90023  -0.02581755 
    2220    696833.88    299.26832    338.99325    88.725068    88.506895    88.737218   -338.99325 -0.025769108 
    2240    697094.79    300.72968    134.11131     88.72948    88.504859    88.768072   -134.11131 -0.025720665 
    2260    697777.69    299.14215    175.15371    88.733892    88.545729    88.809605   -175.15371 -0.025672222 
    2280    697185.73    300.08036    10.358385    88.738303     88.45179    88.824085   -10.358385  -0.02562378 
    2300    697198.36    298.68596    133.55639    88.742715    88.450065     88.82301   -133.55639 -0.025575337 
    2320    697584.67    298.37363   -353.36205    88.747127    88.437398    88.880537    353.36205 -0.025526894 
    2340    697856.59    299.51433   -515.35909    88.751539    88.422985    88.925255    515.35909 -0.025478452 
    2360    697431.69     299.8065   -484.69046    88.755951    88.353066     88.93702    484.69046 -0.025430009 
    2380    697407.71    299.93945   -574.18801    88.760362    88.394647    88.887708    574.18801 -0.025381566 
    2400    696992.07    298.90763   -118.64594    88.764774    88.392807    88.832168    118.64594 -0.025333123 
    2420    696589.95    301.29823   -292.78516    88.769186    88.431827    88.737332    292.78516 -0.025284681 
    2440    696480.44    301.02964    462.19784    88.773598    88.394145    88.756794   -462.19784 -0.025236238 
    2460    696040.13    300.33429    409.05286    88.778009    88.382545    88.707916   -409.05286 -0.025187795 
    2480    695961.51    300.94518    336.72085    88.782421    88.364073    88.712029   -336.72085 -0.025139353 
    2500    696047.18    302.20059    594.09363    88.786833    88.376747    88.705817   -594.09363  -0.02509091 
    2520    696184.53    301.35047    200.08618    88.791245    88.382764    88.712872   -200.08618 -0.025042467 
    2540     695781.3    300.28833     268.0614    88.795656    88.401284    88.638512    -268.0614 -0.024994025 
    2560     695549.7    300.59898    120.66947    88.800068    88.376447    88.629507   -120.66947 -0.024945582 
    2580    696083.94    301.62709   -470.21073     88.80448    88.415806    88.653693    470.21073 -0.024897139 
    2600    696765.21    300.28352    -351.6961    88.808892    88.479983    88.671688     351.6961 -0.024848697 
    2620    696390.76    301.12284   -408.96457    88.813304    88.458417    88.641238    408.96457 -0.024800254 
    2640    696639.21    300.78926    65.870768    88.817715    88.457387    88.669491   -65.870768 -0.024751811 
    2660    696729.31    301.89562   -100.03979    88.822127    88.489749    88.644123    100.03979 -0.024703369 
    2680    696928.79    300.99332     9.893275    88.826539     88.54162    88.613156    -9.893275 -0.024654926 
    2700    697488.71    299.43606     150.2638    88.830951    88.567766    88.653764    -150.2638 -0.024606483 
    2720    697733.07    300.12577   -401.58735    88.835362    88.584564    88.663604    401.58735  -0.02455804 
    2740    697581.31    299.98976    94.082615    88.839774    88.512778    88.711806   -94.082615 -0.024509598 
    2760    697101.52    299.74195    65.400158    88.844186    88.498791    88.660398   -65.400158 -0.024461155 
    2780    697380.95    299.01584   -69.267381    88.848598    88.538356    88.651901    69.267381 -0.024412712 
    2800    697414.51    300.36449   -133.70785    88.853009    88.538612    88.651508    133.70785  -0.02436427 
    2820    697672.38    299.06947   -217.30535    88.857421    88.561399    88.657067    217.30535 -0.024315827 
    2840    697471.88    301.26571     244.1709    88.861833    88.576818    88.611759    -244.1709 -0.024267384 
    2860    697632.67    298.47066    73.977825    88.866245     88.55261    88.652015   -73.977825 -0.024218942 
    2880    697593.79    298.61361   -46.003563    88.870656    88.546597    88.648694    46.003563 -0.024170499 
    2900    697756.34    299.68129   -183.88185    88.875068     88.53638    88.675182    183.88185 -0.024122056 
    2920     697897.8    299.59806   -463.47111     88.87948    88.527198    88.697955    463.47111 -0.024073614 
    2940    698090.25    299.83606   -59.092856    88.883892     88.49395    88.751342    59.092856 -0.024025171 
    2960    698003.04    298.89212   -267.31424    88.888304    88.501475    88.728306    267.31424 -0.023976728 
    2980    698113.85    299.71527   -244.51276    88.892715     88.50121    88.738253    244.51276 -0.023928285 
    3000    697710.77    301.20573   -467.39917    88.897127    88.462138    88.721784    467.39917 -0.023879843 
    3020    697531.89    299.97029   -124.06015    88.901539    88.465598    88.691168    124.06015   -0.0238314 
    3040    697011.48    300.25629    384.38289    88.905951    88.436799    88.649458   -384.38289 -0.023782957 
    3060    696511.72    300.52187    471.78243    88.910362    88.388717    88.629688   -471.78243 -0.023734515 
    3080    696429.65    302.14427    390.85226    88.914774    88.358197    88.645456   -390.85226 -0.023686072 
    3100    696140.52    300.96846    604.03734    88.919186    88.319738     88.64284   -604.03734 -0.023637629 
    3120    696562.09    302.59775    213.45962    88.923598    88.387215     88.62441   -213.45962 -0.023589187 
    3140     696555.7    302.12657    454.37245    88.928009    88.421713    88.584626   -454.37245 -0.023540744 
    3160    696923.31     301.6706   -10.232931    88.932421    88.448235    88.600404    10.232931 -0.023492301 
    3180     697073.3    299.07433   -622.51384    88.936833    88.487921    88.575333    622.51384 -0.023443859 
    3200    697640.63    301.99469   -742.52021    88.941245    88.550204    88.580678    742.52021 -0.023395416 
    3220    697948.48    299.66949   -867.77479    88.945657    88.587191    88.578372    867.77479 -0.023346973 
    3240    698077.16    300.47273   -524.23397    88.950068    88.615936    88.561572    524.23397 -0.023298531 
    3260    698058.67    301.01888   -465.86367     88.95448    88.589001    88.581758    465.86367 -0.023250088 
    3280    697881.63    299.84291   -231.09902    88.958892    88.568276    88.575622    231.09902 -0.023201645 
    3300    697520.87    301.11854    268.58476    88.963304    88.526749     88.56697   -268.58476 -0.023153202 
    3320    697128.18    300.64786    302.20315    88.967715    88.499406    88.540067   -302.20315  -0.02310476 
    3340    697142.45    299.78866    280.59415    88.972127    88.455481    88.581454   -280.59415 -0.023056317 
    3360    697059.89    299.80607    432.66743    88.976539      88.4401    88.581976   -432.66743 -0.023007874 
    3380    696870.47    299.60119    288.89311    88.980951    88.467251    88.526335   -288.89311 -0.022959432 
    3400    696610.62    300.29264    222.08584    88.985362    88.431212    88.525001   -222.08584 -0.022910989 
    3420    696469.42    299.83985   -13.564322    88.989774     88.41353    88.520369    13.564322 -0.022862546 
    3440    696412.48    298.84364   -63.361267    88.994186    88.417662    88.504609    63.361267 -0.022814104 
    3460    696074.19    300.24174   -326.97583    88.998598    88.373567    88.501368    326.97583 -0.022765661 
    3480    696372.01    299.75537   -462.74092     89.00301    88.375256    88.533153    462.74092 -0.022717218 
    3500    696650.98    298.71669   -93.486246    89.007421    88.391087    88.548367    93.486246 -0.022668776 
    3520    697206.59    300.08753   -166.79498    89.011833    88.398723    88.606942    166.79498 -0.022620333 
    3540    697078.19     299.4519    107.10343    89.016245     88.34595    88.639149   -107.10343  -0.02257189 
    3560    697349.19    299.41247    88.990683    89.020657    88.319736    88.695533   -88.990683 -0.022523448 
    3580    697756.78    299.34292     101.9773    89.025068    88.350214    88.712362    -101.9773 -0.022475005 
    3600    698417.39    300.27658   -183.02271     89.02948    88.376077    88.765967    183.02271 -0.022426562 
    3620    698171.87    300.31294    -133.9238    89.033892    88.386888    88.719512     133.9238 -0.022378119 
    3640    698172.17    301.42844   -204.41153    89.038304    88.403832    88.698151    204.41153 -0.022329677 
    3660    697535.94    301.09678   -286.88001    89.042715    88.330327    88.686671    286.88001 -0.022281234 
    3680    697749.08    300.82544   -227.11943    89.047127    88.316728    88.723035    227.11943 -0.022232791 
    3700    698168.26    300.83635    136.07472    89.051539    88.319194     88.76946   -136.07472 -0.022184349 
    3720    698244.26    299.63856   -187.00284    89.055951    88.330791    88.763069    187.00284 -0.022135906 
    3740    697780.86    300.46841   -100.15933    89.060363    88.282365    88.748421    100.15933 -0.022087463 
    3760     697367.6    300.97377   -8.2551243    89.064774    88.276744    88.697114    8.2551243 -0.022039021 
    3780    697316.84    301.31964    191.63819    89.069186    88.290735    88.672211   -191.63819 -0.021990578 
    3800    697271.43    300.85467    245.88874    89.073598    88.314222    88.638465   -245.88874 -0.021942135 
    3820    697093.53    300.56023   -192.79888     89.07801    88.330425    88.595207    192.79888 -0.021893693 
    3840    696635.02    300.69838   -18.571092    89.082421    88.327586    88.535395    18.571092  -0.02184525 
    3860    696794.77    299.99346    -178.3164    89.086833    88.315848    88.563081     178.3164 -0.021796807 
    3880    696886.81    298.61776   -47.898002    89.091245    88.335327    88.550862    47.898002 -0.021748365 
    3900    696638.43     299.4131    293.92558    89.095657    88.250159    88.600342   -293.92558 -0.021699922 
    3920    696264.85    300.24499    72.231062    89.100068    88.163272    88.635711   -72.231062 -0.021651479 
    3940    696143.01    299.07904    64.705797     89.10448    88.155183    88.623944   -64.705797 -0.021603036 
    3960    696550.99    297.70226    -145.3818    89.108892    88.250384    88.575837     145.3818 -0.021554594 
    3980    696582.76    298.65354   -70.833128    89.113304    88.263156    88.562675    70.833128 -0.021506151 
    4000    696538.52    299.21008   -225.60794    89.117716    88.282223    88.533541    225.60794 -0.021457708 
    4020    696159.83    300.17628    -190.2193    89.122127    88.336611     88.42655     190.2193 -0.021409266 
    4040     696469.6    299.30993    135.01957    89.126539    88.390169    88.407917   -135.01957 -0.021360823 
    4060    697176.39    299.96312   -123.87864    89.130951    88.389558    88.493866    123.87864  -0.02131238 
    4080    697312.02    301.02233   -119.70124    89.135363    88.346032    88.550307    119.70124 -0.021263938 
    4100    696870.55    299.06265   -328.65837    89.139774    88.323912    88.512027    328.65837 -0.021215495 
    4120    696916.03      299.762   -49.801641    89.144186    88.334079    88.503235    49.801641 -0.021167052 
    4140    697231.11    299.71965    221.60158    89.148598    88.368914    88.503964   -221.60158  -0.02111861 
    4160    697946.02    299.63905   -89.447059     89.15301    88.436871    88.522252    89.447059 -0.021070167 
    4180    697718.05    300.88289    437.46258    89.157421    88.433208    88.492625   -437.46258 -0.021021724 
    4200    697224.26    300.54705    289.98139    89.161833    88.384964    88.473887   -289.98139 -0.020973282 
    4220    697377.25    300.21654   -170.02066    89.166245    88.413294    88.460569    170.02066 -0.020924839 
    4240    697442.18    300.04243     150.2262    89.170657    88.438686    88.439028    -150.2262 -0.020876396 
    4260    697249.95    300.83047   -647.23217    89.175068    88.404243    88.444724    647.23217 -0.020827953 
    4280    697469.85    300.45146   -425.20253     89.17948      88.3725    88.500019    425.20253 -0.020779511 
    4300    698277.99    300.51024   -825.32154    89.183892    88.417155    88.553431    825.32154 -0.020731068 
    4320    698845.95    300.76059    -746.5685    89.188304    88.363851    88.674534     746.5685 -0.020682625 
    4340     698118.7    300.02922   -40.029795    89.192716    88.284395    88.657594    40.029795 -0.020634183 
    4360    698176.64    299.98162   -46.975047    89.197127    88.321012    88.623809    46.975047  -0.02058574 
    4380    699157.69    300.51502    311.61137    89.201539    88.414532    88.650081   -311.61137 -0.020537297 
    4400    699363.21    300.37734   -200.63816    89.205951    88.409929    88.676371    200.63816 -0.020488855 
    4420    699293.55    301.36707    173.24341    89.210363    88.408024    88.665064   -173.24341 -0.020440412 
    4440    699217.17    299.89335    175.50188    89.214774     88.40705    88.651972   -175.50188 -0.020391969 
    4460    699196.45    300.11715   -154.93088    89.219186    88.434462    88.617485    154.93088 -0.020343527 
    4480    700150.45    300.78559   -88.980302    89.223598    88.514951    88.653321    88.980302 -0.020295084 
    4500    700726.85    298.94922   -197.95111     89.22801     88.55974    88.677045    197.95111 -0.020246641 
    4520     700622.9    299.13681   -411.56762    89.232421     88.56342    88.655824    411.56762 -0.020198199 
    4540    699828.09    299.03606   -148.48418    89.236833    88.511181    88.603133    148.48418 -0.020149756 
    4560    699696.89    298.41758   -264.89695    89.241245    88.514985    88.578336    264.89695 -0.020101313 
    4580     700753.6    298.25037   -62.220467    89.245657    88.576342    88.646278    62.220467  -0.02005287 
    4600    700864.34     298.3863   -554.84194    89.250069    88.524263    88.708061    554.84194 -0.020004428 
    4620    699852.91    299.36562    64.992387     89.25448    88.441784     88.65827   -64.992387 -0.019955985 
    4640    699723.72     298.9075    245.55174    89.258892    88.444236    88.635066   -245.55174 -0.019907542 
    4660    700219.57    299.66587    160.56903    89.263304    88.482604    88.655032   -160.56903   -0.0198591 
    4680    700048.86    298.67155    566.92469    89.267716    88.410321      88.7015   -566.92469 -0.019810657 
    4700    699600.82    300.98412    371.77743    89.272127    88.382801     88.66795   -371.77743 -0.019762214 
    4720     699490.7    300.58912    310.95464    89.276539    88.344597    88.687948   -310.95464 -0.019713772 
    4740     699687.8    301.37566   -460.59248    89.280951    88.345854    88.707292    460.59248 -0.019665329 
    4760    699493.56    299.30845   -276.06727    89.285363    88.273451    88.751019    276.06727 -0.019616886 
    4780    699394.39    300.94505   -315.39364    89.289774    88.259638    88.747939    315.39364 -0.019568444 
    4800    699410.72    302.21884   -187.95043    89.294186    88.200229    88.805403    187.95043 -0.019520001 
    4820     698930.7    299.58573   -101.18258    89.298598    88.186034    88.754354    101.18258 -0.019471558 
    4840    698554.79     300.6513   -188.98631     89.30301    88.161448    88.726972    188.98631 -0.019423116 
    4860    699137.04    299.85367   -300.37364    89.307422    88.243873      88.7136    300.37364 -0.019374673 
    4880    699003.71    300.77843    62.954106    89.311833    88.228467    88.707787   -62.954106  -0.01932623 
    4900    699303.24    301.03287    96.017377    89.316245    88.239058    88.730764   -96.017377 -0.019277787 
    4920    699705.81    301.25422   -167.45429    89.320657    88.254911    88.761511    167.45429 -0.019229345 
    4940    699395.37    300.20879   -232.92726    89.325069    88.245795    88.726914    232.92726 -0.019180902 
    4960    698687.18    299.95047    20.845262     89.32948    88.233265    88.645281   -20.845262 -0.019132459 
    4980    699058.55    300.13801    72.999355    89.333892    88.320043    88.600879   -72.999355 -0.019084017 
    5000    699649.59    299.95024   -232.62708    89.338304    88.363932    88.627367    232.62708 -0.019035574 
    5020    699577.63    300.03769   -361.29817    89.342716    88.368032    88.609764    361.29817 -0.018987131 
    5040    699174.44    299.13656   -302.92902    89.347127    88.330878     88.59157    302.92902 -0.018938689 
    5060    699113.59    300.46363   -402.44034    89.351539    88.274535    88.636025    402.44034 -0.018890246 
    5080    698920.15    299.62758   -74.316502    89.355951    88.263871     88.61783    74.316502 -0.018841803 
    5100    699037.35    300.13013    281.50562    89.360363    88.311719    88.580295   -281.50562 -0.018793361 
    5120    699334.57    299.36863   -238.94245    89.364775    88.313981    88.611313    238.94245 -0.018744918 
    5140    698684.98    300.04253   -17.955737    89.369186    88.254903    88.583892    17.955737 -0.018696475 
    5160    697962.08    300.56798    321.80505    89.373598    88.185262     88.55775   -321.80505 -0.018648033 
    5180    698016.78    300.42388    57.340181     89.37801    88.208741    88.536747   -57.340181  -0.01859959 
    5200    698060.83    301.29968   -63.123805    89.382422    88.254877    88.491679    63.123805 -0.018551147 
    5220    697873.97    300.22295   -53.490988    89.386833    88.221636    88.496958    53.490988 -0.018502704 
    5240    697518.88    299.30379   -202.59395    89.391245    88.109964    88.559663    202.59395 -0.018454262 
    5260    697885.36    299.85214   -280.85935    89.395657     88.10187     88.60996    280.85935 -0.018405819 
    5280    698435.56    299.71997   -252.26372    89.400069    88.190044    88.586782    252.26372 -0.018357376 
    5300    697788.66     300.0401   -105.86838     89.40448    88.173041    88.517431    105.86838 -0.018308934 
    5320    697748.61    298.76506   -214.30461    89.408892    88.101774     88.57958    214.30461 -0.018260491 
    5340     698530.4    300.61455   -256.66354    89.413304    88.095944    88.680321    256.66354 -0.018212048 
    5360     698484.4    300.54483   -304.25615    89.417716    88.080963    88.685187    304.25615 -0.018163606 
    5380    698260.09    301.42186   -193.68721    89.422128    88.070697    88.662666    193.68721 -0.018115163 
    5400    698235.26    299.74948    -52.10519    89.426539    88.089304    88.636413     52.10519  -0.01806672 
    5420    697833.29    299.60502     -121.796    89.430951    88.105623    88.564609      121.796 -0.018018278 
    5440    697735.91    300.41107    357.33432    89.435363     88.08565    88.567959   -357.33432 -0.017969835 
    5460    697574.81    300.01312   -190.95666    89.439775    88.069859    88.559017    190.95666 -0.017921392 
    5480    697950.65    300.91275   -511.02044    89.444186    88.073106    88.599095    511.02044  -0.01787295 
    5500    698430.65    300.21262   -289.37307    89.448598    88.107912    88.620632    289.37307 -0.017824507 
    5520    698044.38    300.23116   -278.40205     89.45301    88.094718    88.580517    278.40205 -0.017776064 
    5540    698082.07    299.51017    212.50122    89.457422    88.086903     88.58879   -212.50122 -0.017727621 
    5560    698232.31    298.78052    -4.446047    89.461833     88.09418    88.596166     4.446047 -0.017679179 
    5580    697824.45    300.89534    -112.7939    89.466245    88.055246    88.579197     112.7939 -0.017630736 
    5600     698336.6    300.28679   -7.8598207    89.470657    88.079322    88.615607    7.8598207 -0.017582293 
    5620    699086.21    300.71081   -253.34466    89.475069    88.116633    88.668794    253.34466 -0.017533851 
    5640    698579.41    299.52228   -109.54196     89.47948    88.057381    88.659762    109.54196 -0.017485408 
    5660    698518.62    298.94234    -312.2375    89.483892    87.998058    88.707438     312.2375 -0.017436965 
    5680    698978.83    299.60101   -683.06508    89.488304    88.010178    88.749281    683.06508 -0.017388523 
    5700    699014.05    299.19038   -398.99171    89.492716    88.035401     88.72395    398.99171  -0.01734008 
    5720    698618.61    299.17371   -121.15138    89.497128    88.020071    88.684831    121.15138 -0.017291637 
    5740    698867.53    298.42675  -0.97458976    89.501539    88.049539    88.682366   0.97458976 -0.017243195 
    5760    699077.63    299.60566    81.061374    89.505951    88.071433    88.682603   -81.061374 -0.017194752 
    5780    698954.15    300.40384    204.06196    89.510363    88.136328    88.597286   -204.06196 -0.017146309 
    5800    698696.13    299.21713   -170.28718    89.514775    88.126714    88.569877    170.28718 -0.017097867 
    5820    698436.43    299.30918   -68.656804    89.519186    88.098044    88.561403    68.656804 -0.017049424 
    5840    698116.57    300.81086    115.19475    89.523598    88.030184    88.584718   -115.19475 -0.017000981 
    5860    698045.03    299.04564    86.092383     89.52801    87.970512    88.631355   -86.092383 -0.016952538 
    5880    698191.26    298.55192     -319.595    89.532422    87.924444       88.692      319.595 -0.016904096 
    5900    698010.08    298.94557   -380.19759    89.536833    87.871862    88.717671    380.19759 -0.016855653 
    5920    698397.51    299.97997   -397.04763    89.541245    87.903619    88.730473    397.04763  -0.01680721 
    5940    698506.04    299.48468   -291.92787    89.545657    87.934602    88.708623    291.92787 -0.016758768 
    5960     698463.9    299.87503   -635.06801    89.550069    87.946046    88.687359    635.06801 -0.016710325 
    5980    698007.79     299.6935   -524.82082    89.554481     87.95305    88.618021    524.82082 -0.016661882 
    6000    698242.45     300.5975   -247.25729    89.558892    87.979999    88.616293    247.25729  -0.01661344 
    6020    698676.93    300.98707   -632.45026    89.563304    88.005011    88.641867    632.45026 -0.016564997 
    6040    698850.45    300.21092   -286.50431    89.567716    88.007253    88.657256    286.50431 -0.016516554 
    6060    697954.12    301.42004    293.05583    89.572128    87.934549     88.61239   -293.05583 -0.016468112 
    6080    698959.85    301.24998    143.46551    89.576539     87.97083    88.699109   -143.46551 -0.016419669 
    6100    699792.42    301.87068    187.90706    89.580951    88.026985    88.743743   -187.90706 -0.016371226 
    6120    699466.18    299.59634    302.70607    89.585363    87.969981    88.755477   -302.70607 -0.016322784 
    6140    699333.06    300.85181    82.507791    89.589775     88.01737    88.686441   -82.507791 -0.016274341 
    6160    698967.08    301.49874    11.925758    89.594186    87.979247    88.674072   -11.925758 -0.016225898 
    6180    699205.15    299.97423    18.824727    89.598598    88.003884    88.675075   -18.824727 -0.016177455 
    6200    700107.97    299.10468   -385.57822     89.60301    88.070331    88.718216    385.57822 -0.016129013 
    6220    700613.49    299.99444   -749.40953    89.607422    88.144227    88.703477    749.40953  -0.01608057 
    6240    700435.94     300.8932   -789.33645    89.611834    88.116862     88.70417    789.33645 -0.016032127 
    6260    700375.55    301.30337   -857.32574    89.616245    88.049631    88.759878    857.32574 -0.015983685 
    6280    700389.15     299.0967   -322.70576    89.620657    88.038566    88.768386    322.70576 -0.015935242 
    6300    700302.22    300.09172   -283.46317    89.625069    88.022617    88.769081    283.46317 -0.015886799 
    6320    700127.61    300.23451   -96.742348    89.629481    88.019916    88.745303    96.742348 -0.015838357 
    6340    700266.44    298.94844    274.53571    89.633892    88.074463     88.70356   -274.53571 -0.015789914 
    6360    699684.87    297.53532    659.05318    89.638304    88.062145    88.637926   -659.05318 -0.015741471 
    6380    699764.33    298.16157     415.8738    89.642716    88.064272     88.64149    -415.8738 -0.015693029 
    6400    700462.24    297.30812    347.81037    89.647128    88.120934    88.668479   -347.81037 -0.015644586 
    6420    701087.41    298.72419   -184.81642    89.651539    88.114859    88.749367    184.81642 -0.015596143 
    6440    701088.65    299.60143    -384.8565    89.655951    88.115311    88.744702     384.8565 -0.015547701 
    6460    700546.48    300.27215   -476.53609    89.660363    88.132844     88.65407    476.53609 -0.015499258 
    6480    700684.98    298.76911   -294.61369    89.664775    88.160925    88.638991    294.61369 -0.015450815 
    6500    700952.07    300.18228   -413.47964    89.669187    88.194261    88.634901    413.47964 -0.015402372 
    6520    700841.93    299.96994   -660.28538    89.673598    88.212514    88.598279    660.28538  -0.01535393 
    6540    700290.47    299.28647    -387.5916     89.67801    88.218055    88.518649     387.5916 -0.015305487 
    6560    699817.97    300.52601    112.25991    89.682422    88.230419    88.442177   -112.25991 -0.015257044 
    6580    700166.42    300.50784    303.96112    89.686834    88.258457    88.453751   -303.96112 -0.015208602 
    6600    701113.68    300.39545    146.46656    89.691245     88.26089    88.566622   -146.46656 -0.015160159 
    6620    700353.86    299.64047    190.65512    89.695657    88.188447     88.53896   -190.65512 -0.015111716 
    6640    699624.94    300.32241    249.73869    89.700069    88.154682    88.476335   -249.73869 -0.015063274 
    6660    699869.77    300.29653   -24.627606    89.704481    88.165181    88.492404    24.627606 -0.015014831 
    6680    700124.88    299.52142    196.72812    89.708892    88.159436    88.526076   -196.72812 -0.014966388 
    6700    699937.54    299.61718    133.57145    89.713304    88.101415    88.556318   -133.57145 -0.014917946 
    6720    700351.02    300.98247   -573.19443    89.717716    88.122908    88.582664    573.19443 -0.014869503 
    6740    700129.73    300.38185    -594.3547    89.722128     88.10749    88.565816     594.3547  -0.01482106 
    6760    699848.71    299.81379   -490.18483     89.72654    88.104025    88.529396    490.18483 -0.014772618 
    6780    699701.35     299.3548   -373.29574    89.730951    88.075593    88.534974    373.29574 -0.014724175 
    6800    699601.21     301.4648   -265.46559    89.735363    88.127263    88.466051    265.46559 -0.014675732 
    6820    699219.29    299.71195   -166.05789    89.739775    88.123989    88.416695    166.05789 -0.014627289 
    6840    699361.96    300.87072     66.96003    89.744187    88.141936    88.412383    -66.96003 -0.014578847 
    6860    699920.49     299.8726   -188.26508    89.748598    88.184428    88.436008    188.26508 -0.014530404 
    6880    699794.29    298.55338    8.5146289     89.75301    88.210922    88.389161   -8.5146289 -0.014481961 
    6900     699855.2    300.70297    20.950678    89.757422    88.216442    88.386979   -20.950678 -0.014433519 
    6920    700464.48    299.58728   -255.49619    89.761834    88.253311    88.422622    255.49619 -0.014385076 
    6940    700801.51     299.4431   -292.50758    89.766245    88.212836    88.501408    292.50758 -0.014336633 
    6960    700457.48    300.31093   -489.94322    89.770657     88.24858    88.417789    489.94322 -0.014288191 
    6980    700271.71    299.43074   -698.16176    89.775069    88.259179    88.379379    698.16176 -0.014239748 
    7000     700146.4    299.02063   -152.78691    89.779481    88.275283    88.343103    152.78691 -0.014191305 
    7020    699809.85    299.00154   -165.49027    89.783892    88.185862    88.385833    165.49027 -0.014142863 
    7040    700158.49    298.49593   -480.71894    89.788304    88.194371     88.41699    480.71894  -0.01409442 
    7060    700233.74    300.18181   -408.63163    89.792716    88.193144    88.423377    408.63163 -0.014045977 
    7080    699541.66    298.52364   -175.74954    89.797128    88.193469    88.331318    175.74954 -0.013997535 
    7100    699128.83    299.54355   -463.83301     89.80154    88.072857    88.395741    463.83301 -0.013949092 
    7120    699698.04    300.20641   -379.34903    89.805951    88.077179    88.459024    379.34903 -0.013900649 
    7140    699639.42    300.21412    18.080352    89.810363    88.090277    88.434117   -18.080352 -0.013852206 
    7160    698898.29    299.80737   -207.45177    89.814775    88.086285    88.340102    207.45177 -0.013803764 
    7180    699262.58    300.68937   -153.05585    89.819187    88.091579    88.376496    153.05585 -0.013755321 
    7200     700053.7     301.3197   -444.47587    89.823598    88.177435    88.385993    444.47587 -0.013706878 
    7220    699540.04    300.10242   -46.769985     89.82801    88.124581    88.369772    46.769985 -0.013658436 
    7240     699338.2     300.5649    234.15054    89.832422    88.136335    88.328154   -234.15054 -0.013609993 
    7260    699868.85    300.54327   -283.65922    89.836834    88.117166    88.410065    283.65922  -0.01356155 
    7280    699741.73    300.00147    6.0063156    89.841245    88.093775    88.413135   -6.0063156 -0.013513108 
    7300    698972.11    301.88178    164.73278    89.845657    88.047663    88.357806   -164.73278 -0.013464665 
    7320     698544.4    300.99209   -89.356394    89.850069     88.05318    88.293871    89.356394 -0.013416222 
    7340    698423.62    301.71509   -41.988758    89.854481    88.029093    88.298424    41.988758  -0.01336778 
    7360    698478.09    301.33833   -474.50659    89.858893    88.081345    88.248592    474.50659 -0.013319337 
    7380    698503.09    300.93896   -538.04609    89.863304    88.077604    88.251167    538.04609 -0.013270894 
    7400    697655.11    300.90142   -248.32235    89.867716    88.028321    88.189048    248.32235 -0.013222452 
    7420     697230.8    300.75378   -334.00488    89.872128     88.00437    88.155071    334.00488 -0.013174009 
    7440    697590.58    299.58952   -399.80181     89.87654    88.060464    88.140051    399.80181 -0.013125566 
    7460    697933.87    300.31116   -62.100352    89.880951    88.034971    88.204631    62.100352 -0.013077123 
    7480    698507.95    301.06803    124.12231    89.885363    88.037847    88.269967   -124.12231 -0.013028681 
    7500    698112.36    300.90639    136.63946    89.889775    87.988585    88.265035   -136.63946 -0.012980238 
    7520    698672.97     300.4249    330.10683    89.894187    88.021599     88.29845   -330.10683 -0.012931795 
    7540    699182.93    298.82306     183.1053    89.898598    88.026725    88.353418    -183.1053 -0.012883353 
    7560    699205.21     299.9577   -33.978552     89.90301    87.987316     88.39147    33.978552  -0.01283491 
    7580    699785.34    298.89756   -360.37156    89.907422    88.033158    88.414402    360.37156 -0.012786467 
    7600    699414.21    298.58288   -305.54904    89.911834    88.081703    88.314475    305.54904 -0.012738025 
    7620    699161.53    298.80172   -268.79459    89.916246     88.09277    88.267147    268.79459 -0.012689582 
    7640    698951.26    298.44878   -478.05944    89.920657       88.058    88.271113    478.05944 -0.012641139 
    7660    699688.25    298.68114   -690.96632    89.925069    88.109277    88.308431    690.96632 -0.012592697 
    7680    699870.41    300.22921   -358.59995    89.929481     88.11539    88.320959    358.59995 -0.012544254 
    7700    699376.37    299.64335    34.026205    89.933893    88.071204    88.298563   -34.026205 -0.012495811 
    7720    699720.52    300.50763   -129.29562    89.938304    88.015432    88.393655    129.29562 -0.012447369 
    7740     699830.6    301.01719   -145.19682    89.942716     87.99293    88.425831    145.19682 -0.012398926 
    7760    699293.87    300.21134   -251.92352    89.947128    87.948384     88.39843    251.92352 -0.012350483 
    7780    699157.57    300.64306   -289.83543     89.95154    87.972801    88.352338    289.83543  -0.01230204 
    7800    699289.59     300.7547   -73.516473    89.955951    87.939956     88.39769    73.516473 -0.012253598 
    7820    699013.34    301.78117   -41.163903    89.960363    87.911653    88.386883    41.163903 -0.012205155 
    7840    698865.85    300.44633    175.48858    89.964775    87.890152    88.385517   -175.48858 -0.012156712 
    7860    699291.45    300.97707   -6.6579282    89.969187    87.971038    88.353693    6.6579282  -0.01210827 
    7880    699364.31    300.65801   -355.01629    89.973599    87.917531    88.412341    355.01629 -0.012059827 
    7900    699855.69    300.26816   -142.75027     89.97801    87.933168     88.45439    142.75027 -0.012011384 
    7920    700258.95    300.33728   -487.90431    89.982422    87.911314    88.523019    487.90431 -0.011962942 
    7940    700780.43    299.73269   -104.23617    89.986834    87.972122    88.523367    104.23617 -0.011914499 
    7960    700699.54    300.26613   -336.83493    89.991246    88.013963    88.466733    336.83493 -0.011866056 
    7980    700237.96    299.55877   -257.53002    89.995657    88.029303    88.388717    257.53002 -0.011817614 
    8000    700643.81    299.89432    16.480356    90.000069     87.98726    88.477868   -16.480356 -0.011769171 
    8020     700365.5    300.12489   -414.78378    90.004481    87.995028    88.430581    414.78378 -0.011720728 
    8040     700051.7    299.82366  -0.93856183    90.008893    87.985799    88.395899   0.93856183 -0.011672286 
    8060    699812.99    299.95372   -148.85218    90.013304    88.014625    88.332486    148.85218 -0.011623843 
    8080    699538.78    298.89124   -166.43661    90.017716     87.97593    88.332382    166.43661   -0.0115754 
    8100    700034.27    300.55041   -204.82515    90.022128    88.003849    88.362574    204.82515 -0.011526957 
    8120    700010.19     298.7836   -237.20271     90.02654    87.967585    88.391628    237.20271 -0.011478515 
    8140    700210.28    299.19515   -197.20884    90.030952     88.00742    88.372543    197.20884 -0.011430072 
    8160    700043.48    298.68577   -196.58293    90.035363    87.956485    88.398323    196.58293 -0.011381629 
    8180    699943.77    298.88465   -198.48946    90.039775    87.971223    88.366596    198.48946 -0.011333187 
    8200    701121.43    298.59721    -260.5628    90.044187    88.031016    88.450817     260.5628 -0.011284744 
    8220     701498.4    299.31593   -516.98928    90.048599    88.098538    88.426213    516.98928 -0.011236301 
    8240    701604.11    297.83902   -35.891714     90.05301    88.113035    88.420655    35.891714 -0.011187859 
    8260    701476.59    300.03646   -375.61402    90.057422    88.133781    88.379445    375.61402 -0.011139416 
    8280    701551.45    299.42471   -340.17333    90.061834    88.138164    88.380152    340.17333 -0.011090973 
    8300    701727.23    300.30582   -138.88699    90.066246    88.111902    88.424313    138.88699 -0.011042531 
    8320    701921.84    299.54563   -247.94456    90.070657    88.056955    88.499692    247.94456 -0.010994088 
    8340    701841.96    301.21608   -55.624632    90.075069    88.066235    88.475962    55.624632 -0.010945645 
    8360    701763.99    300.38812   -146.34764    90.079481    88.046497    88.481632    146.34764 -0.010897203 
    8380    702118.71    300.87188     313.2416    90.083893    88.030366    88.538242    -313.2416  -0.01084876 
    8400    702462.64    301.20277   -66.120724    90.088304     88.01298    88.594771    66.120724 -0.010800317 
    8420     702217.8    300.18563    32.023285    90.092716     88.04761    88.524724   -32.023285 -0.010751874 
    8440    702533.58    299.52722    90.253837    90.097128    88.140977    88.466385   -90.253837 -0.010703432 
    8460    702833.14    300.83669   -378.81728     90.10154    88.199699    88.440851    378.81728 -0.010654989 
    8480    702452.94    300.95291   -172.87639    90.105952    88.132913    88.455661    172.87639 -0.010606546 
    8500    701868.29    300.89419   -218.44482    90.110363    88.120354    88.390308    218.44482 -0.010558104 
    8520    701939.74     301.0558   -155.97598    90.114775    88.066922     88.44861    155.97598 -0.010509661 
    8540    702229.93    299.72417   -608.80945    90.119187    88.081932    88.465766    608.80945 -0.010461218 
    8560    702676.39    299.36106    -779.5742    90.123599    88.083061    88.516541     779.5742 -0.010412776 
    8580     702339.4    299.95101   -427.62671     90.12801    88.037738    88.515305    427.62671 -0.010364333 
    8600    701373.12    300.74403   -683.87012    90.132422    87.945208    88.482196    683.87012  -0.01031589 
    8620    701120.29    300.57957   -251.47371    90.136834    87.927659    88.463624    251.47371 -0.010267448 
    8640    700631.84    299.70108   -163.54914    90.141246    87.911558    88.413858    163.54914 -0.010219005 
    8660     700569.3    298.92694   -149.24832    90.145657    87.900569     88.41269    149.24832 -0.010170562 
    8680    700982.09    299.64485   -83.395548    90.150069    87.922109    88.438784    83.395548  -0.01012212 
    8700    700191.94    300.15527    124.10716    90.154481    87.885701    88.371366   -124.10716 -0.010073677 
    8720    700310.64     300.1402    403.30155    90.158893    87.930127    88.337368   -403.30155 -0.010025234 
    8740    700633.59     298.8629   -64.489567    90.163305    87.917899    88.386072    64.489567 -0.0099767914 
    8760     701725.1    299.16097   -321.57798    90.167716    88.009998    88.426804    321.57798 -0.0099283488 
    8780    701826.28    299.35556   -326.94122    90.172128    88.023274    88.421889    326.94122 -0.0098799061 
    8800    701332.56    299.16471   -429.11048     90.17654     88.03984    88.338738    429.11048 -0.0098314634 
    8820     701202.9    299.68649   -321.53295    90.180952    88.012294    88.345727    321.53295 -0.0097830207 
    8840    700999.78    298.77728   -315.36342    90.185363    87.990483    88.337706    315.36342 -0.009734578 
    8860    701038.78    297.88166   -176.34187    90.189775    87.964821    88.364071    176.34187 -0.0096861353 
    8880    700832.01    297.16311   -292.56358    90.194187    87.983029    88.315406    292.56358 -0.0096376926 
    8900    700459.27    297.27401   -165.66328    90.198599      87.9647     88.28251    165.66328 -0.0095892499 
    8920    700430.14    298.53885   -116.43819     90.20301    87.964464    88.274758    116.43819 -0.0095408072 
    8940    700512.87    298.11475   -192.91978    90.207422    87.987984    88.257268    192.91978 -0.0094923646 
    8960    700789.89    297.69233   -82.721278    90.211834    88.026319    88.249403    82.721278 -0.0094439219 
    8980    700837.68    297.57701   -97.666662    90.216246    88.037139    88.240259    97.666662 -0.0093954792 
    9000     700525.4    299.83989   -197.66199    90.220658    88.034758    88.199013    197.66199 -0.0093470365 
    9020    700104.73    299.09826   -255.79787    90.225069    88.023517    88.152994    255.79787 -0.0092985938 
    9040    699841.34    300.45452    97.804032    90.229481    87.994743    88.144336   -97.804032 -0.0092501511 
    9060    699615.86    299.34284   -167.94414    90.233893    88.008775    88.097579    167.94414 -0.0092017084 
    9080    699597.24    300.00867   -178.53076    90.238305    88.024262    88.075429    178.53076 -0.0091532657 
    9100    700422.17    300.85104    -41.46062    90.242716     88.07894    88.120235     41.46062 -0.0091048231 
    9120    700921.42    299.77018   -42.358079    90.247128     88.09388    88.163781    42.358079 -0.0090563804 
    9140    701176.75    299.66933   -43.133758     90.25154    88.080841     88.20464    43.133758 -0.0090079377 
    9160    701278.73    300.73643    -327.4383    90.255952    88.054879    88.239166     327.4383 -0.008959495 
    9180    701695.26    299.09708   -167.23322    90.260363    88.040686    88.301493    167.23322 -0.0089110523 
    9200    702387.83    299.54337   -543.10257    90.264775    88.086315    88.338542    543.10257 -0.0088626096 
    9220    701763.57    300.13298   -351.47653    90.269187    88.024693    88.317501    351.47653 -0.0088141669 
    9240     701652.1     300.5678   -155.81547    90.273599    88.041197    88.282604    155.81547 -0.0087657242 
    9260    701531.34    300.49507   -330.67985    90.278011    88.010954    88.293426    330.67985 -0.0087172816 
    9280    701316.79    300.10582   -305.01774    90.282422    88.030768    88.242244    305.01774 -0.0086688389 
    9300    701147.53    301.90831    83.407168    90.286834    88.055656    88.191703   -83.407168 -0.0086203962 
    9320    700987.04    301.18456   -70.722969    90.291246     88.09035    88.132483    70.722969 -0.0085719535 
    9340    700824.26    300.20932    98.856615    90.295658    88.084523     88.11354   -98.856615 -0.0085235108 
    9360    700512.64     299.2504   -163.27923    90.300069    88.076918    88.077663    163.27923 -0.0084750681 
    9380    700738.08    301.18791   -77.988285    90.304481    88.033168    88.145488    77.988285 -0.0084266254 
    9400     701335.5     299.9698   -377.91205    90.308893    88.076607    88.172819    377.91205 -0.0083781827 
    9420    701695.64    301.18241   -211.45011    90.313305    88.108686    88.181671    211.45011 -0.0083297401 
    9440    701682.72    299.68601   -289.64162    90.317716    88.059604    88.224885    289.64162 -0.0082812974 
    9460    701572.67    299.66323   -244.24734    90.322128    88.010498    88.255956    244.24734 -0.0082328547 
    9480    701448.78    300.23544   -289.39098     90.32654    87.988859    88.257761    289.39098 -0.008184412 
    9500    701395.62    300.73834   -408.10634    90.330952    87.963996    88.271704    408.10634 -0.0081359693 
    9520    701676.17    298.70129   -509.00793    90.335364    88.028832    88.237662    509.00793 -0.0080875266 
    9540    701504.17     298.5618   -443.83047    90.339775    88.060663    88.179838    443.83047 -0.0080390839 
    9560    701532.07    299.57596    -267.9484    90.344187    88.100424    88.139242     267.9484 -0.0079906412 
    9580    701603.52    300.46274   -183.02095    90.348599    88.117058    88.127276    183.02095 -0.0079421986 
    9600    701415.84    299.84681    68.401046    90.353011    88.133779    88.082686   -68.401046 -0.0078937559 
    9620    702087.86    298.52297    49.126565    90.357422    88.167665    88.128888   -49.126565 -0.0078453132 
    9640     702177.3    300.29653   -447.37305    90.361834    88.131264    88.172214    447.37305 -0.0077968705 
    9660     701372.4    298.71108   -285.58586    90.366246    88.105098    88.092998    285.58586 -0.0077484278 
    9680    701560.15    298.89779   -245.30046    90.370658    88.109944    88.107433    245.30046 -0.0076999851 
    9700    702164.79    299.04112   -585.79443    90.375069    88.100295     88.18872    585.79443 -0.0076515424 
    9720    702264.07    299.89688    -296.1194    90.379481     88.05558    88.241671     296.1194 -0.0076030997 
    9740    701908.06    298.32411   -50.697425    90.383893    88.010354    88.237953    50.697425 -0.0075546571 
    9760    702369.81    299.33732   -15.515035    90.388305    87.998969    88.303113    15.515035 -0.0075062144 
    9780    702644.77    300.40263   -75.104087    90.392716    87.953695    88.378838    75.104087 -0.0074577717 
    9800    702531.37    299.56351     22.97345    90.397128    87.879086    88.435281    -22.97345 -0.007409329 
    9820     702830.3    299.73518    -31.39466     90.40154    87.899069    88.448479     31.39466 -0.0073608863 
    9840    703381.35    301.32598   -769.97709    90.405952    87.965472     88.44669    769.97709 -0.0073124436 
    9860    703700.02    298.55737   -647.61137    90.410364     87.96531    88.482607    647.61137 -0.0072640009 
    9880    702801.45    301.56018   -491.32459    90.414775    87.901106    88.429853    491.32459 -0.0072155582 
    9900    702587.04    300.14526   -136.59871    90.419187    87.908273    88.391355    136.59871 -0.0071671156 
    9920    702592.02    299.71763   -364.47377    90.423599    87.985139    88.310451    364.47377 -0.0071186729 
    9940    702343.87    300.91063   -229.91224    90.428011     87.97161    88.288529    229.91224 -0.0070702302 
    9960    702015.02     300.9251   -120.21067    90.432422    87.940845    88.273756    120.21067 -0.0070217875 
    9980     701622.7    301.35795   -261.96241    90.436834     87.88947    88.271688    261.96241 -0.0069733448 
   10000    701223.65    300.97419   -183.55512    90.441246    87.853067    88.253734    183.55512 -0.0069249021 
   10020    701364.85    301.10942   -179.17947    90.445658    87.869195    88.250999    179.17947 -0.0068764594 
   10040    701733.06    300.58702   -229.91874    90.450069    87.898171    88.263916    229.91874 -0.0068280167 
   10060    701984.23    300.70434    72.270197    90.454481    87.909051    88.280274   -72.270197 -0.0067795741 
   10080    701409.66    300.50444   -43.289518    90.458893    87.867402    88.245524    43.289518 -0.0067311314 
   10100    702161.45     299.1201    38.313149    90.463305    87.926825    88.276101   -38.313149 -0.0066826887 
   10120    702777.98    299.58849   -419.36831    90.467717    88.006331    88.269487    419.36831 -0.006634246 
   10140    702810.57    299.53977   -743.84181    90.472128    87.988489    88.287175    743.84181 -0.0065858033 
   10160    702320.34    299.50273   -569.60229     90.47654    87.938953    88.270985    569.60229 -0.0065373606 
   10180     702039.6    299.87312   -464.95731    90.480952    87.885403    88.285158    464.95731 -0.0064889179 
   10200    701855.53    298.27639    -60.55557    90.485364    87.928564    88.214386     60.55557 -0.0064404752 
   10220    702337.47    299.22029   -469.77332    90.489775    87.930084    88.269129    469.77332 -0.0063920325 
   10240    702221.35    299.88401   -48.054497    90.494187    87.949713    88.230536    48.054497 -0.0063435899 
   10260    701949.21    299.49634   -347.47145    90.498599    87.929563    88.212254    347.47145 -0.0062951472 
   10280    701528.91    299.15093    240.69407    90.503011    87.964658    88.119968   -240.69407 -0.0062467045 
   10300    701621.79    300.99007    355.58406    90.507422    87.931426    88.160644   -355.58406 -0.0061982618 
   10320    702357.42    300.58913   -73.365661    90.511834     87.94412    88.236038    73.365661 -0.0061498191 
   10340    702230.47    299.36856   -266.65616    90.516246    87.845829    88.314495    266.65616 -0.0061013764 
   10360    701942.01    300.29524   -550.33775    90.520658    87.819293    88.300589    550.33775 -0.0060529337 
   10380    702076.81       299.87   -576.19768     90.52507    87.798796    88.333858    576.19768 -0.006004491 
   10400    702118.38    299.80568   -283.74096    90.529481    87.818923    88.314538    283.74096 -0.0059560484 
   10420    701616.71     299.5603   -362.19215    90.533893    87.776748    88.289537    362.19215 -0.0059076057 
   10440    702052.39    300.80504   -161.05041    90.538305    87.803779    88.312862    161.05041 -0.005859163 
   10460    701787.31    300.80253   -20.403625    90.542717    87.734886    88.344531    20.403625 -0.0058107203 
   10480    701914.09    299.08738   -126.63616    90.547128    87.800295    88.290363    126.63616 -0.0057622776 
   10500    701660.41    300.08586    8.6005126     90.55154    87.803796    88.250635   -8.6005126 -0.0057138349 
   10520    701557.81    299.12082    289.37031    90.555952    87.807988    88.229219   -289.37031 -0.0056653922 
   10540    701765.75    301.07031    116.39565    90.560364    87.810097    88.248951   -116.39565 -0.0056169495 
   10560    702888.88    300.12418   -466.23468    90.564775    87.902874    88.292595    466.23468 -0.0055685069 
   10580    703630.45      299.814   -699.41812    90.569187     87.95637    88.327687    699.41812 -0.0055200642 
   10600     703605.1    299.81276   -869.09827    90.573599    87.949802    88.326798    869.09827 -0.0054716215 
   10620    703119.41    301.29828    -498.6112    90.578011    87.868842     88.34285     498.6112 -0.0054231788 
   10640    703160.46    299.48132   -498.24462    90.582423    87.867881    88.344671    498.24462 -0.0053747361 
   10660    703400.08    299.84166   -652.88119    90.586834    87.884571    88.353689    652.88119 -0.0053262934 
   10680    703192.31     299.8407   -378.23534    90.591246    87.915494    88.292224    378.23534 -0.0052778507 
   10700    702937.93    299.70969   -403.01306    90.595658    87.880544    88.291086    403.01306 -0.005229408 
   10720    702512.96    299.82978    67.754847     90.60007    87.867618    88.246391   -67.754847 -0.0051809654 
   10740    702892.48    301.41857    198.84551    90.604481    87.909683    88.247519   -198.84551 -0.0051325227 
   10760    702567.58    301.89871    136.25272    90.608893    87.866578    88.245703   -136.25272  -0.00508408 
   10780    702815.78    300.44077    36.276598    90.613305    87.894678    88.244359   -36.276598 -0.0050356373 
   10800    703176.62    299.57346   -211.30197    90.617717    87.909084      88.2709    211.30197 -0.0049871946 
   10820     703128.5    300.17926   -74.138581    90.622128    87.895473     88.27423    74.138581 -0.0049387519 
   10840    702950.72    300.00847   -146.48172     90.62654    87.871951    88.271237    146.48172 -0.0048903092 
   10860    702679.63    299.39907   -378.58109    90.630952    87.790218    88.315046    378.58109 -0.0048418665 
   10880    702749.41    299.69673   -434.07109    90.635364    87.781109    88.328681    434.07109 -0.0047934239 
   10900    702763.57    300.20926   -383.38282    90.639776      87.7579    88.349521    383.38282 -0.0047449812 
   10920    702798.15    299.60747   -355.72126    90.644187    87.755593     88.35189    355.72126 -0.0046965385 
   10940    702994.18    299.72269   -159.06711    90.648599    87.829816    88.297552    159.06711 -0.0046480958 
   10960    702903.06     298.5285   -204.43357    90.653011    87.796218    88.315593    204.43357 -0.0045996531 
   10980    702309.37    297.67902    55.594906    90.657423    87.768726    88.264345   -55.594906 -0.0045512104 
   11000    703240.56    299.46766   -93.771389    90.661834    87.851482    88.293822    93.771389 -0.0045027677 
   11020    703253.98    298.77487   -231.40791    90.666246    87.898402    88.244081    231.40791 -0.004454325 
   11040    703383.58    298.20154   -176.91163    90.670658    87.859915    88.294709    176.91163 -0.0044058824 
   11060    703135.86    299.19367   -248.97865     90.67507    87.825016     88.29439    248.97865 -0.0043574397 
   11080    703506.54    298.28725   -551.34691    90.679481    87.820679    88.341002    551.34691 -0.004308997 
   11100    703164.26    299.41145   -445.68861    90.683893    87.820607    88.293797    445.68861 -0.0042605543 
   11120    703240.38    300.14024   -361.77189    90.688305    87.778786    88.341129    361.77189 -0.0042121116 
   11140    702924.44    300.23043   -219.96374    90.692717    87.787364    88.288518    219.96374 -0.0041636689 
   11160    701902.13     300.5227   -175.70997    90.697128    87.742171    88.201231    175.70997 -0.0041152262 
   11180    701855.73    300.96311   -7.7692474     90.70154    87.766079    88.167086    7.7692474 -0.0040667835 
   11200    702335.44    299.45537   -170.78085    90.705952    87.819303    88.169588    170.78085 -0.0040183409 
   11220    702302.15    300.51637   -25.074808    90.710364    87.816273    88.164163    25.074808 -0.0039698982 
   11240    702098.54    300.25333   -112.55069    90.714776    87.757722    88.193117    112.55069 -0.0039214555 
   11260    702260.06    300.81463    182.66249    90.719187    87.732597    88.234378   -182.66249 -0.0038730128 
   11280    702563.77    299.22315    254.11961    90.723599    87.781866    88.218704   -254.11961 -0.0038245701 
   11300    702721.15    300.29079   -112.54184    90.728011    87.813456    88.202433    112.54184 -0.0037761274 
   11320    703386.37    301.44736   -548.18793    90.732423     87.87456    88.220249    548.18793 -0.0037276847 
   11340    703910.95    300.25274   -850.32222    90.736834    87.888182    88.268067    850.32222 -0.003679242 
   11360    703522.29    300.50118   -648.31176    90.741246    87.891705    88.211505    648.31176 -0.0036307994 
   11380    703358.77    299.36356   -396.42755    90.745658    87.889922    88.188504    396.42755 -0.0035823567 
   11400    703471.94    300.08097      -240.03     90.75007    87.874727    88.213657       240.03 -0.003533914 
   11420    703740.93    299.03554    -85.29227    90.754481    87.876439    88.241377     85.29227 -0.0034854713 
   11440    702916.75    300.53799    52.064086    90.758893    87.793791    88.216719   -52.064086 -0.0034370286 
   11460    702512.97    301.16685    33.162363    90.763305    87.722862    88.233043   -33.162363 -0.0033885859 
   11480    703102.61    299.88132    282.59073    90.767717    87.762221    88.263205   -282.59073 -0.0033401432 
   11500    703336.25    299.75598   -156.41435    90.772129    87.795983    88.254293    156.41435 -0.0032917005 
   11520    703597.99    298.52429   -332.00302     90.77654    87.839908    88.238698    332.00302 -0.0032432578 
   11540    703410.84    299.44703   -490.79155    90.780952    87.780489    88.270651    490.79155 -0.0031948152 
   11560    703222.25    299.53585   -592.45795    90.785364    87.726782    88.296719    592.45795 -0.0031463725 
   11580    703754.08    298.83228   -583.23269    90.789776    87.731463    88.354488    583.23269 -0.0030979298 
   11600    704603.52    298.91653   -552.23244    90.794187    87.805764    88.381982    552.23244 -0.0030494871 
   11620    704671.85    299.33891   -427.66644    90.798599    87.825771    88.366123    427.66644 -0.0030010444 
   11640    703793.77    297.36708   -219.75149    90.803011     87.85788    88.219472    219.75149 -0.0029526017 
   11660    703737.36     298.1881   -201.46452    90.807423    87.840308    88.225761    201.46452 -0.002904159 
   11680    704339.25    297.21447   -198.34676    90.811834     87.84727     88.28993    198.34676 -0.0028557163 
   11700    703906.28    297.99855   -215.59412    90.816246    87.833631    88.245071    215.59412 -0.0028072737 
   11720    703088.89    299.29503   -2.5168133    90.820658    87.776983    88.195199    2.5168133 -0.002758831 
   11740    702921.15    298.29569    64.121031     90.82507    87.774366    88.172503   -64.121031 -0.0027103883 
   11760    702926.53    299.47955   -81.986214    90.829482    87.799674    88.143481    81.986214 -0.0026619456 
   11780    702820.14    298.69466   -458.90634    90.833893    87.807781    88.117724    458.90634 -0.0026135029 
   11800    702767.81    298.96373   -368.07258    90.838305    87.787752    88.126984    368.07258 -0.0025650602 
   11820    703268.49    300.34981   -547.23171    90.842717      87.8384    88.134639    547.23171 -0.0025166175 
   11840    703261.01    299.64514   -511.42279    90.847129    87.894678    88.072994    511.42279 -0.0024681748 
   11860    703264.96    301.78772   -338.11766     90.85154    87.914817    88.049037    338.11766 -0.0024197322 
   11880    703312.14    300.37076    -310.3854    90.855952    87.842207    88.123449     310.3854 -0.0023712895 
   11900    703758.13    299.35608   -604.85807    90.860364    87.907419     88.10964    604.85807 -0.0023228468 
   11920    703283.71    300.79396   -203.35014    90.864776    87.904737    88.048655    203.35014 -0.0022744041 
   11940    703583.42    299.95399   -98.843445    90.869187    87.950946    88.035622    98.843445 -0.0022259614 
   11960    703644.73    299.65122   -96.690635    90.873599    87.956088    88.033872    96.690635 -0.0021775187 
   11980    703889.06     299.8267    27.023065    90.878011     87.93123     88.08506   -27.023065 -0.002129076 
   12000    703963.23    299.59612   -91.468193    90.882423     87.94068      88.0806    91.468193 -0.0020806333 
   12020    704370.26    299.58863   -172.85443    90.886835    87.998919    88.068926    172.85443 -0.0020321907 
   12040    704404.94    300.10558   -374.19053    90.891246    88.021923    88.045969    374.19053 -0.001983748 
   12060    704286.69    300.35533   -462.11535    90.895658     87.97954    88.069322    462.11535 -0.0019353053 
   12080    704555.59    300.33961   -392.41832     90.90007    87.972049    88.106173    392.41832 -0.0018868626 
   12100    704415.54    299.84835   -852.17511    90.904482    87.914614     88.14193    852.17511 -0.0018384199 
   12120    703816.17    301.36195   -437.67522    90.908893    87.895522    88.081787    437.67522 -0.0017899772 
   12140    704370.97    300.74059   -148.05659    90.913305    87.874501    88.168029    148.05659 -0.0017415345 
   12160    704128.55    299.50463   -208.24234    90.917717    87.824319    88.183767    208.24234 -0.0016930918 
   12180    703625.44    299.82808    102.47808    90.922129     87.75389    88.187202   -102.47808 -0.0016446492 
   12200    703966.23    300.76589    46.546924     90.92654    87.752569    88.226961   -46.546924 -0.0015962065 
   12220    704681.76    300.54269   -346.39985    90.930952    87.794311    88.270365    346.39985 -0.0015477638 
   12240    704419.53    299.41145   -117.80908    90.935364    87.830913    88.196466    117.80908 -0.0014993211 
   12260    704039.57     299.7073   -274.79834    90.939776    87.821287    88.154279    274.79834 -0.0014508784 
   12280    704555.51    300.16928   -747.73691    90.944188    87.865769    88.169942    747.73691 -0.0014024357 
   12300    704669.04    300.81262    -850.2773    90.948599    87.857565    88.188106     850.2773 -0.001353993 
   12320    704632.39    298.04346   -450.60726    90.953011    87.828658    88.208264    450.60726 -0.0013055503 
   12340    705275.97    299.00606   -407.06291    90.957423    87.835221    88.277951    407.06291 -0.0012571077 
   12360    704897.01    298.53648   -336.83346    90.961835    87.802093    88.259525    336.83346 -0.001208665 
   12380    703781.35    299.45798    -40.38037    90.966246    87.750822    88.167046     40.38037 -0.0011602223 
   12400    703750.38    298.62966    179.38498    90.970658    87.689483    88.220557   -179.38498 -0.0011117796 
   12420    703987.53    300.00999   -104.76545     90.97507    87.651619    88.284127    104.76545 -0.0010633369 
   12440    703415.96    299.33904   -1.3654314    90.979482     87.61665    88.243376    1.3654314 -0.0010148942 
   12460     703132.3    299.69828    77.139242    90.983893    87.617161    88.202999   -77.139242 -0.00096645153 
   12480    703219.93    298.06759   -131.07861    90.988305    87.606899    88.220048    131.07861 -0.00091800884 
   12500    703420.33     299.7797   -47.220706    90.992717    87.607035    88.240772    47.220706 -0.00086956615 
   12520    703573.15    299.79408   -342.25264    90.997129    87.654678    88.207695    342.25264 -0.00082112346 
   12540     703545.7    300.07416   -476.10952     91.00154    87.683768    88.170716    476.10952 -0.00077268078 
   12560    703637.57    299.38021   -512.10249    91.005952    87.684647     88.17707    512.10249 -0.00072423809 
   12580    703941.39    299.31993    -414.1649    91.010364    87.749843    88.145329     414.1649 -0.0006757954 
   12600    704536.01    299.61783   -589.15388    91.014776    87.818917    88.146123    589.15388 -0.00062735271 
   12620     704579.8    300.80722   -518.36345    91.019188    87.784226    88.182163    518.36345 -0.00057891003 
   12640    703922.27    301.00524   -445.38143    91.023599    87.757061     88.12287    445.38143 -0.00053046734 
   12660    703909.04      301.485   -117.53444    91.028011    87.745353      88.1287    117.53444 -0.00048202465 
   12680    704046.83    301.18782   -140.31503    91.032423     87.72139    88.165757    140.31503 -0.00043358196 
   12700    703465.64    300.52624    356.32731    91.036835    87.640001    88.170513   -356.32731 -0.00038513927 
   12720    702948.18    302.45288    292.03032    91.041246    87.641729    88.099649   -292.03032 -0.00033669659 
   12740     702733.2    300.84718    25.847252    91.045658    87.626388    88.083857   -25.847252 -0.0002882539 
   12760    703555.43    299.44403   -353.80492     91.05007    87.649612    88.159281    353.80492 -0.00023981121 
   12780    703553.72    300.07085    -835.1842    91.054482    87.663593    88.140735     835.1842 -0.00019136852 
   12800    703543.57    298.54872    -537.4558    91.058893    87.729845    88.068636     537.4558 -0.00014292584 
   12820    703599.44    300.31551   -651.39814    91.063305     87.76202    88.039075    651.39814 -9.4483148e-05 
   12840    703569.05    298.55895    -186.9865    91.067717    87.741939    88.051153     186.9865 -4.604046e-05 
   12860    703433.97    298.39559   -282.14067    91.072129    87.721487    88.050508    282.14067 2.4022273e-06 
   12880    703293.39    299.98475   -11.742927    91.076541    87.737714    88.012366    11.742927 5.0844915e-05 
   12900    703831.25    300.02477   -25.781194    91.080952    87.779085    88.033898    25.781194 9.9287603e-05 
   12920    703601.08     300.2273   -117.00802    91.085364    87.730921    88.049159    117.00802 0.00014773029 
   12940    704227.94    300.41503   -46.406405    91.089776    87.786454     88.06759    46.406405 0.00019617298 
   12960     704438.2    299.99095   -376.52342    91.094188    87.801606    88.074415    376.52342 0.00024461567 
   12980    704371.06    299.99478   -393.33234    91.098599    87.772514    88.090944    393.33234 0.00029305835 
[...]
  396740    1260557.3    300.39212    337.93765    175.75161    84.619369    84.760501   -337.93765   0.92981135 
  396760    1261043.5    301.13905    -95.45623    175.75602    84.661136    84.749235     95.45623   0.92985979 
  396780    1260796.4    298.80949   -182.73952    175.76043    84.699317    84.692303    182.73952   0.92990824 
  396800    1261200.8    300.55558   -283.98102    175.76484    84.724193    84.692469    283.98102   0.92995668 
  396820    1261405.5    301.00986   -138.73469    175.76925    84.765965    84.662346    138.73469   0.93000512 
  396840    1261406.6    301.14644   -159.55927    175.77366    84.782295     84.64399    159.55927   0.93005356 
  396860    1260498.4    302.25002   -105.93468    175.77808    84.748813    84.614342    105.93468   0.93010201 
  396880    1260317.1    299.85864   -118.70691    175.78249    84.732039    84.616794    118.70691   0.93015045 
  396900    1260864.7     299.5961   -40.302463     175.7869    84.698637    84.684819    40.302463   0.93019889 
  396920    1260644.7    300.10326    198.75751    175.79131    84.655172    84.711387   -198.75751   0.93024733 
  396940    1259873.2    301.09523    355.71226    175.79572    84.642377     84.67022   -355.71226   0.93029578 
  396960      1259584    300.53418    63.279777    175.80014    84.663083    84.627958   -63.279777   0.93034422 
  396980    1260887.9    300.83806   -150.79999    175.80455    84.686719    84.689793    150.79999   0.93039266 
  397000    1261496.3    300.00823   -203.32304    175.80896     84.72508     84.69017    203.32304    0.9304411 
  397020    1262025.1    300.03307   -196.36049    175.81337    84.798403    84.650286    196.36049   0.93048955 
  397040      1261861    300.16217   -91.805301    175.81778    84.828766    84.606856    91.805301   0.93053799 
  397060    1260766.6    299.50497   -243.88729    175.82219    84.792706    84.567309    243.88729   0.93058643 
  397080    1260516.2    300.42878    -154.8503    175.82661    84.778002    84.563052     154.8503   0.93063488 
  397100    1261129.4     299.4895   -169.57915    175.83102    84.799648    84.580474    169.57915   0.93068332 
  397120    1260997.8    299.16048   -130.98434    175.83543    84.784933    84.584204    130.98434   0.93073176 
  397140    1260012.7    299.61752    145.72826    175.83984    84.770674    84.530223   -145.72826    0.9307802 
  397160    1259783.4     298.9404    101.42569    175.84425    84.757451    84.525903   -101.42569   0.93082865 
  397180      1260924    298.83602   -16.984105    175.84866     84.78008    84.577729    16.984105   0.93087709 
  397200    1261373.3     299.7242   -2.1576022    175.85308    84.817373    84.568541    2.1576022   0.93092553 
  397220    1261569.4    299.43327    183.71695    175.85749    84.828461    84.568514   -183.71695   0.93097397 
  397240      1262067    298.98362    153.44369     175.8619    84.854729    84.573556   -153.44369   0.93102242 
  397260    1261284.8    300.10677    26.262369    175.86631    84.794358    84.579193   -26.262369   0.93107086 
  397280    1259962.3    298.35966    93.532938    175.87072    84.788848    84.493882   -93.532938    0.9311193 
  397300    1260023.9    300.37197   -46.773186    175.87514    84.797717    84.487059    46.773186   0.93116775 
  397320    1261425.6    299.06705   -40.631191    175.87955    84.838016    84.538748    40.631191   0.93121619 
  397340    1261681.4    299.33707   -193.30741    175.88396    84.811124    84.580578    193.30741   0.93126463 
  397360      1260937    300.68244   -226.63904    175.88837     84.78401    84.555586    226.63904   0.93131307 
  397380    1260986.2    300.91128   -145.75668    175.89278     84.72867    84.611996    145.75668   0.93136152 
  397400    1261595.2    300.37532   -215.99597    175.89719    84.699808     84.67958    215.99597   0.93140996 
  397420    1262154.1    301.79321   -34.795066    175.90161    84.693869    84.720909    34.795066    0.9314584 
  397440    1262444.3    301.76374    4.5119531    175.90602    84.710608     84.72152   -4.5119531   0.93150684 
  397460    1262080.2    300.43113  -0.82591163    175.91043    84.706372    84.699192   0.82591163   0.93155529 
  397480    1261604.9    299.93632    112.72488    175.91484    84.652217    84.719335   -112.72488   0.93160373 
  397500    1261336.8      299.895    62.578716    175.91925    84.647509    84.703923   -62.578716   0.93165217 
  397520    1261983.3    300.98486    92.050792    175.92366    84.689353    84.703337   -92.050792   0.93170061 
  397540    1262331.8    300.68593   -41.739789    175.92808    84.726597    84.687364    41.739789   0.93174906 
  397560    1263050.1    300.63887    -184.6627    175.93249    84.724983    84.735039     184.6627    0.9317975 
  397580    1263241.3    299.95706   -143.16232     175.9369     84.72611    84.744614    143.16232   0.93184594 
  397600    1261980.2    299.90513    28.263347    175.94131    84.711282     84.67271   -28.263347   0.93189439 
  397620    1261164.7    301.60216    166.92687    175.94572    84.634818    84.692321   -166.92687   0.93194283 
  397640      1261848    300.23132    55.756248    175.95014    84.659519    84.711357   -55.756248   0.93199127 
  397660    1262142.9    300.37958   -1.3150085    175.95455    84.688782    84.699752    1.3150085   0.93203971 
  397680    1262301.3    299.04667   -90.482014    175.95896    84.718638    84.678408    90.482014   0.93208816 
  397700    1261646.5    299.45799   -192.95525    175.96337    84.656648    84.694329    192.95525    0.9321366 
  397720      1261065      299.244   -163.34949    175.96778    84.616918    84.692917    163.34949   0.93218504 
  397740      1261215    298.05283   -357.05906    175.97219    84.659083    84.658684    357.05906   0.93223348 
  397760    1260978.7    299.14586   -57.632824    175.97661    84.702899    84.596919    57.632824   0.93228193 
  397780    1259541.3    298.59071   -71.811738    175.98102    84.683744    84.517483    71.811738   0.93233037 
  397800    1259576.7    299.89615    55.740147    175.98543    84.656058    84.545378   -55.740147   0.93237881 
  397820    1260043.5    299.34649    99.110704    175.98984    84.712395    84.518347   -99.110704   0.93242726 
  397840    1260761.5    299.80994    85.414351    175.99425    84.711855    84.564923   -85.414351    0.9324757 
  397860    1261391.7    299.38304   -11.500382    175.99866    84.715946     84.60099    11.500382   0.93252414 
  397880    1260764.8    299.47109   -59.869525    176.00308    84.633957    84.638739    59.869525   0.93257258 
  397900      1260778    299.51659    7.3151936    176.00749    84.655981     84.61548   -7.3151936   0.93262103 
  397920    1260712.7    301.35524   -27.864323     176.0119    84.682349    84.582636    27.864323   0.93266947 
  397940    1260615.1    300.92153    77.394767    176.01631    84.698404    84.557934   -77.394767   0.93271791 
  397960    1260556.6     299.5072    146.60149    176.02072    84.664079    84.586168   -146.60149   0.93276635 
  397980    1260855.8    300.20396   -115.78185    176.02514    84.692335    84.575898    115.78185    0.9328148 
  398000    1261526.1    300.27748   -10.730585    176.02955     84.72264    84.588471    10.730585   0.93286324 
  398020    1261562.8    300.90309   -204.59402    176.03396    84.776939    84.534638    204.59402   0.93291168 
  398040      1261345    299.29924   -57.660172    176.03837    84.785974    84.508918    57.660172   0.93296012 
  398060    1261869.2     299.7067   -5.7620409    176.04278    84.778808    84.549063    5.7620409   0.93300857 
  398080    1261605.2    300.51581    79.907286    176.04719    84.718228      84.5897   -79.907286   0.93305701 
  398100    1262694.2    300.83255    55.730931    176.05161    84.755696    84.623169   -55.730931   0.93310545 
  398120    1262554.9    299.91435   -39.575364    176.05602    84.745519     84.62188    39.575364    0.9331539 
  398140    1260945.1    299.74995     150.7449    176.06043    84.698853    84.558427    -150.7449   0.93320234 
  398160    1260538.5    300.31996    269.61607    176.06484    84.650397     84.57743   -269.61607   0.93325078 
  398180    1261450.4    300.11772    34.894788    176.06925    84.703227    84.583704   -34.894788   0.93329922 
  398200      1260759    300.27253   -12.330868    176.07366    84.644941    84.593437    12.330868   0.93334767 
  398220    1260480.7    299.48693   -124.50148    176.07808    84.647184    84.570401    124.50148   0.93339611 
  398240    1261796.3    300.23356   -314.12264    176.08249    84.706186    84.597585    314.12264   0.93344455 
  398260    1261519.9    300.65658    -357.2173     176.0869    84.680878    84.602207     357.2173   0.93349299 
  398280    1261179.9    299.50796   -156.95118    176.09131     84.62512    84.633017    156.95118   0.93354144 
  398300      1262295    300.49924   -59.338656    176.09572    84.680433    84.650393    59.338656   0.93358988 
  398320    1262414.1    300.13482   -127.18484    176.10014    84.675597    84.661093    127.18484   0.93363832 
  398340    1261656.8    298.10364     129.4388    176.10455    84.657783    84.625994    -129.4388   0.93368676 
  398360    1260977.9    299.05276   -12.009018    176.10896    84.621548     84.61455    12.009018   0.93373521 
  398380    1261489.9    299.54217    254.28415    176.11337    84.647763    84.620574   -254.28415   0.93378365 
  398400    1261281.9    299.85723    84.762915    176.11778    84.645099    84.607162   -84.762915   0.93383209 
  398420      1260187    299.42454     27.84419    176.12219    84.606791    84.569877    -27.84419   0.93388054 
  398440    1258905.3    298.14056   -5.3129032    176.12661    84.570204    84.518294    5.3129032   0.93392898 
  398460    1258450.4    298.46539   -243.22319    176.13102    84.579986    84.475869    243.22319   0.93397742 
  398480    1259232.1    299.07909   -129.96959    176.13543     84.60771    84.498525    129.96959   0.93402586 
  398500    1259397.6    299.79439   -243.75937    176.13984    84.607852    84.507371    243.75937   0.93407431 
  398520    1258751.8    298.50033   -153.07436    176.14425    84.598679    84.471077    153.07436   0.93412275 
  398540    1257884.6    300.51023   -29.696547    176.14866    84.545168    84.464195    29.696547   0.93417119 
  398560    1258136.3    299.95264    21.276859    176.15308    84.571715    84.452463   -21.276859   0.93421963 
  398580    1258618.4    300.40593    148.18568    176.15749    84.580477    84.473955   -148.18568   0.93426808 
  398600    1258723.2    300.58052    225.48419     176.1619    84.585081    84.474276   -225.48419   0.93431652 
  398620    1259174.5    300.57964    286.49957    176.16631    84.595352    84.492188   -286.49957   0.93436496 
  398640    1259082.3    302.18228    145.91065    176.17072    84.553894    84.525312   -145.91065   0.93441341 
  398660    1259388.7    301.55322    64.737069    176.17514    84.512718    84.584953   -64.737069   0.93446185 
  398680    1260430.7    298.81032    32.442601    176.17955    84.558211    84.607275   -32.442601   0.93451029 
  398700    1261230.2    300.15199   -247.58754    176.18396    84.538713    84.678344    247.58754   0.93455873 
  398720    1261910.5    299.35534   -222.81196    176.18837     84.53746    84.723154    222.81196   0.93460718 
  398740    1262452.5    300.96312   -360.92912    176.19278    84.554725    84.740114    360.92912   0.93465562 
  398760    1262907.6     300.1436   -299.07354    176.19719    84.569702    84.753527    299.07354   0.93470406 
  398780    1262841.3    301.55783   -277.51784    176.20161    84.593224    84.723393    277.51784    0.9347525 
  398800    1262025.1    299.23995    -102.4956    176.20602     84.59106    84.668677     102.4956   0.93480095 
  398820    1262822.2    300.25449    42.955466    176.21043    84.603712    84.707369   -42.955466   0.93484939 
  398840    1262303.6    301.11587    191.18849    176.21484    84.579116    84.695079   -191.18849   0.93489783 
  398860    1262796.1    299.80376    356.11077    176.21925    84.578356     84.72677   -356.11077   0.93494627 
  398880    1263370.3    299.60269    146.51562    176.22366    84.589066     84.75244   -146.51562   0.93499472 
  398900    1263487.9    299.83322    35.056285    176.22808    84.624154    84.723064   -35.056285   0.93504316 
  398920    1263909.2    299.47511      43.4831    176.23249    84.647046    84.726272     -43.4831    0.9350916 
  398940    1263743.5    298.81726   -197.73711     176.2369    84.601336    84.758812    197.73711   0.93514005 
  398960    1264105.6    298.67103   -317.42385    176.24131    84.601609    84.780702    317.42385   0.93518849 
  398980    1263566.9    297.57366    -270.7851    176.24572     84.63125    84.712773     270.7851   0.93523693 
  399000    1262788.8    299.18971   -298.95808    176.25014    84.619393     84.67035    298.95808   0.93528537 
  399020    1262703.7    298.44005   -259.64626    176.25455    84.647581    84.634335    259.64626   0.93533382 
  399040    1261774.6     298.1622   -171.39123    176.25896    84.627904    84.589606    171.39123   0.93538226 
  399060    1260843.8    298.83247    202.56201    176.26337    84.596002    84.556965   -202.56201    0.9354307 
  399080    1262147.5     298.8666    34.312228    176.26778    84.645261    84.593016   -34.312228   0.93547914 
  399100    1262952.8    299.91405   -1.4684738    176.27219    84.719742    84.570461    1.4684738   0.93552759 
  399120    1262567.5    300.14948    16.833465    176.27661    84.748756    84.513597   -16.833465   0.93557603 
  399140    1261778.3    298.80725     77.75217    176.28102    84.723306     84.48403    -77.75217   0.93562447 
  399160      1261411    300.20681   -131.30077    176.28543    84.715784    84.464817    131.30077   0.93567292 
  399180    1260910.3    298.80728   -81.230005    176.28984    84.731327    84.413692    81.230005   0.93572136 
  399200    1260874.8     299.5742    24.632926    176.29425    84.733314    84.407226   -24.632926    0.9357698 
  399220    1260847.7    300.82864   -70.971169    176.29866    84.723978    84.412597    70.971169   0.93581824 
  399240    1260474.5    299.21224    45.090317    176.30308     84.67886    84.430466   -45.090317   0.93586669 
  399260    1259518.5    300.82144    104.21167    176.30749    84.633169    84.409861   -104.21167   0.93591513 
  399280      1259569    300.21802   -49.122496     176.3119    84.627357    84.416929    49.122496   0.93596357 
  399300    1260115.4    300.43745   -59.308162    176.31631    84.657045    84.421825    59.308162   0.93601201 
  399320    1260031.9     300.2967   -124.34665    176.32072    84.626437    84.444645    124.34665   0.93606046 
  399340    1260342.8    300.91109   -127.45131    176.32514    84.692499    84.397488    127.45131    0.9361089 
  399360    1260200.8    302.38152   -76.711955    176.32955    84.703775    84.374629    76.711955   0.93615734 
  399380    1259442.4    301.51257    145.35896    176.33396    84.721574     84.30403   -145.35896   0.93620578 
  399400    1260780.9    300.62645    97.412995    176.33837    84.828485    84.285151   -97.412995   0.93625423 
  399420    1261464.3    300.85297    23.949415    176.34278    84.874816    84.282696   -23.949415   0.93630267 
  399440    1261359.4    300.14497    14.780972    176.34719    84.820144    84.327901   -14.780972   0.93635111 
  399460    1261217.3    299.87068    18.110483    176.35161    84.761941    84.374186   -18.110483   0.93639956 
  399480    1261260.8     299.8505    33.545411    176.35602    84.750434    84.386446   -33.545411     0.936448 
  399500    1261743.7    298.77547    89.727415    176.36043    84.692543    84.474342   -89.727415   0.93649644 
  399520    1261750.3    297.57542   -14.542526    176.36484    84.666942    84.498216    14.542526   0.93654488 
  399540    1262015.6     297.1552    9.5215274    176.36925    84.636552    84.544215   -9.5215274   0.93659333 
  399560    1262220.6     299.1962   -170.52326    176.37366      84.6813    84.511146    170.52326   0.93664177 
  399580      1262382    298.14899    14.241815    176.37808    84.679779     84.52136   -14.241815   0.93669021 
  399600    1262564.5    298.04641   -45.317088    176.38249    84.682454    84.528797    45.317088   0.93673865 
  399620    1263262.2    299.37035   -150.55738     176.3869    84.691422    84.564436    150.55738    0.9367871 
  399640    1263176.6    298.78175    61.384675    176.39131    84.675974    84.572016   -61.384675   0.93683554 
  399660    1263026.1    299.36502   -112.14964    176.39572    84.671367    84.564423    112.14964   0.93688398 
  399680    1262368.1     299.7498   -111.02752    176.40014    84.702217    84.487472    111.02752   0.93693243 
  399700      1263058    300.37894    21.831121    176.40455    84.722981    84.510813   -21.831121   0.93698087 
  399720    1262568.7    299.50518   -1.7373005    176.40896    84.692968    84.505896    1.7373005   0.93702931 
  399740    1263459.7    301.30048    88.161421    176.41337    84.759104     84.49744   -88.161421   0.93707775 
  399760    1263795.5    300.63331   -47.334725    176.41778     84.79945     84.47757    47.334725    0.9371262 
  399780    1263988.2    299.21795    88.948724    176.42219    84.829448     84.45846   -88.948724   0.93717464 
  399800    1263724.8    299.53836   -35.986912    176.42661    84.801139    84.466939    35.986912   0.93722308 
  399820    1264385.9    300.66128   -63.792562    176.43102    84.785056    84.525039    63.792562   0.93727152 
  399840    1264410.5    300.33982   -176.44315    176.43543    84.781066    84.528551    176.44315   0.93731997 
  399860    1263583.5    300.54188   -210.53037    176.43984      84.7502    84.501917    210.53037   0.93736841 
  399880    1263379.9    300.79744    42.851938    176.44425    84.736212    84.500135   -42.851938   0.93741685 
  399900    1263916.2    300.23952   -98.983828    176.44866    84.725835    84.544245    98.983828   0.93746529 
  399920    1263755.2    300.32799    67.732931    176.45308    84.739779     84.51745   -67.732931   0.93751374 
  399940    1263438.7    300.82319    178.83397    176.45749    84.724331    84.509579   -178.83397   0.93756218 
  399960    1264145.3    299.64961    138.58706     176.4619    84.718726    84.560325   -138.58706   0.93761062 
  399980    1264265.6    301.16746    70.470994    176.46631    84.690756    84.594186   -70.470994   0.93765907 
  400000    1264488.9    301.09113   -92.750093    176.47072    84.697782    84.599993    92.750093   0.93770751 
Loop time of 28641.9 on 64 procs for 400000 steps with 64040 atoms

Performance: 1.207 ns/day, 19.890 hours/ns, 13.966 timesteps/s
99.3% CPU use with 64 MPI tasks x 1 OpenMP threads

MPI task timing breakdown:
Section |  min time  |  avg time  |  max time  |%varavg| %total
---------------------------------------------------------------
Pair    | 1473.4     | 6804.7     | 10925      |3345.4 | 23.76
Bond    | 130.86     | 500.04     | 713.56     | 802.1 |  1.75
Kspace  | 1512.5     | 5856.5     | 11565      |3844.8 | 20.45
Neigh   | 14272      | 14364      | 14451      |  45.9 | 50.15
Comm    | 675.54     | 794.59     | 935.9      | 238.0 |  2.77
Output  | 7.2188     | 7.3989     | 8.2731     |   4.6 |  0.03
Modify  | 232.57     | 294.53     | 333        | 125.6 |  1.03
Other   |            | 20         |            |       |  0.07

Nlocal:        1000.62 ave        1881 max           0 min
Histogram: 13 2 2 3 4 13 6 3 2 16
Nghost:        9728.33 ave       17720 max         571 min
Histogram: 12 4 0 0 6 24 2 0 0 16
Neighs:       702530.0 ave 1.56585e+06 max           0 min
Histogram: 16 1 4 5 13 7 1 1 9 7

Total # of neighbors = 44961932
Ave neighs/atom = 702.09138
Ave special neighs/atom = 5.8719550
Neighbor list builds = 400000
Dangerous builds not checked
Total wall time: 7:57:25
