LAMMPS (29 Oct 2020)
OMP_NUM_THREADS environment is not set. Defaulting to 1 thread. (../comm.cpp:94)
  using 1 OpenMP thread(s) per MPI task
####################################################
#    This program is free software: you can redistribute it and/or modify
#    it under the terms of the GNU General Public License as published by
#    the Free Software Foundation, either version 3 of the License, or
#    (at your option) any later version.
#
#    This program is distributed in the hope that it will be useful,
#    but WITHOUT ANY WARRANTY; without even the implied warranty of
#    MERCHANTABILITY or FITNESS FOR A PARTICULAR PURPOSE.  See the
#    GNU General Public License for more details.


units		real        ## defines the units style used herein. More information: https://docs.lammps.org/units.html
atom_style	full        ## defines the atom style used herein. More information: https://docs.lammps.org/atom_style.html

# Styles
pair_style      lj/cut/coul/long 15.0 10.0      ## sets the formula(s) LAMMPS uses to compute pairwise interactions; here, lennard-jones (LJ) with long-range Coulomb interaction. More: https://docs.lammps.org/pair_lj_cut_coul.html
pair_modify     shift no                        ## the shift keyword determines whether a Lennard-Jones potential is shifted at its cutoff to 0.0. More: https://docs.lammps.org/pair_modify.html
kspace_style    pppm 1.0e-4                     ## defines a long-range solver for LAMMPS to compute long-range Coulombic interactions. Note: requires use of a matching pair style, i.e. PPPM with coul/long. More: https://docs.lammps.org/kspace_style.html
bond_style      harmonic                        ## defined based off the forcefield used to construct the system; models the atoms' interactions
angle_style     harmonic
dihedral_style  opls
improper_style  cvff
special_bonds   lj 0 0 1 coul 0 0 1

read_data       500K_PS.lmps      ## input lammps datafile, equilibriated until structure nears experimental properties
Reading data file ...
  orthogonal box = (54.663378 54.663378 54.663378) to (145.33662 145.33662 145.33662)
  4 by 4 by 4 MPI processor grid
  reading atoms ...
  64040 atoms
  reading velocities ...
  64040 velocities
  scanning bonds ...
  2 = max bonds/atom
  scanning angles ...
  6 = max angles/atom
  scanning dihedrals ...
  12 = max dihedrals/atom
  scanning impropers ...
  3 = max impropers/atom
  reading bonds ...
  68020 bonds
  reading angles ...
  119880 angles
  reading dihedrals ...
  191660 dihedrals
  reading impropers ...
  51880 impropers
Finding 1-2 1-3 1-4 neighbors ...
  special bond factors lj:    0.0      0.0      1.0     
  special bond factors coul:  0.0      0.0      1.0     
     4 = max # of 1-2 neighbors
     8 = max # of 1-3 neighbors
    12 = max # of special neighbors
  special bonds CPU = 1.920 seconds
  read_data CPU = 3.685 seconds

dielectric      1.0
neighbor    	1.0 bin
neigh_modify	delay 0 every 1 check no        ## this is to make sure that the neighbor list is updated every timestep, and the atoms don't get lost as the system is being deformed ##

timestep	    1.0                             ## unit = fs, per "real" unit style
run_style       verlet                          ## defines algorithm used for simulation computation; verlet integration is a numerical method used to integrate Newton's equations of motion.

variable stress equal press*-1                         ## computes stress as the negative of press values
variable engStrain equal (lx-91.07191)/91.07191      ## computes engineering strain; lx_0 must be found and inputted manually (for now)

thermo		    20                                                               ## output log data (headers in thermo_style), recorded at every timestep in numList.txt
thermo_style    custom step vol temp press lx ly lz v_stress v_engStrain         ## data headers of output log file. More: https://docs.lammps.org/thermo_style.html

################# Deformation ##################

fix 1 all npt temp 500 500 100 y 1 1 100.0 z 1 1 100.0      ## stress normal to the x direction can vary; external pressure (y and z) = 1atm ##

fix 2 all deform 1 x scale 2.0 remap x                      ## sets a uniaxial (x-direction) deformation in motion, scaling a set amount (here, 4.0x) the initial length


################# Dumping ##################

reset_timestep 0

dump dump2 all custom 20000 sim.lammpstrj id mol type q xs ys zs ix iy iz

restart 40000 PS.restart

run 		400000              ## this depends on the overall strain rate, where strain rate = deformScale / runTimeSteps (consider units!)
PPPM initialization ...
WARNING: System is not charge neutral, net charge = -8.9366436e-05 (../kspace.cpp:313)
  using 12-bit tables for long-range coulomb (../kspace.cpp:328)
  G vector (1/distance) = 0.20255614
  grid = 24 24 24
  stencil order = 5
  estimated absolute RMS force accuracy = 0.024281815
  estimated relative force accuracy = 7.3123966e-05
  using double precision FFTW3
  3d grid and FFT values/proc = 1331 216
Neighbor list info ...
  update every 1 steps, delay 0 steps, check no
  max neighbors/atom: 2000, page size: 100000
  master list distance cutoff = 16
  ghost atom cutoff = 16
  binsize = 8, bins = 12 12 12
  1 neighbor lists, perpetual/occasional/extra = 1 0 0
  (1) pair lj/cut/coul/long, perpetual
      attributes: half, newton on
      pair build: half/bin/newton
      stencil: half/bin/3d/newton
      bin: standard
Per MPI rank memory allocation (min/avg/max) = 18.05 | 18.46 | 18.84 Mbytes
Step Volume Temp Press Lx Ly Lz v_stress v_engStrain 
       0    745482.52    500.15548    12456.345    90.673244    90.673244    90.673244   -12456.345 -0.0043774811 
      20    749292.97    510.47481    663.77242    90.677778    90.897235    90.907584   -663.77242   -0.0043277 
      40    752811.15    507.03128   -2348.4611    90.682312    91.127671    91.098911    2348.4611 -0.0042779189 
      60    750803.76    508.36828    -883.9842    90.686845    91.029996    90.948936     883.9842 -0.0042281377 
      80    748078.76    502.70285   -817.58889    90.691379     90.86871    90.775146    817.58889 -0.0041783566 
     100     747138.4    503.14983   -282.26888    90.695913    90.814334    90.710788    282.26888 -0.0041285755 
     120    743719.02    503.63098    143.90963    90.700446    90.618229    90.486521   -143.90963 -0.0040787944 
     140    744379.91    504.47438   -116.76118     90.70498    90.640182     90.54047    116.76118 -0.0040290132 
     160    745111.23    504.04653     613.4102    90.709514     90.74655    90.518667    -613.4102 -0.0039792321 
     180    746345.77    503.06108   -232.18344    90.714047     90.79148    90.619244    232.18344 -0.003929451 
     200    745461.44    500.46388    102.03458    90.718581    90.747379    90.551332   -102.03458 -0.0038796699 
     220    745571.89    502.00167   -838.96597    90.723115    90.753802    90.553814    838.96597 -0.0038298887 
     240    745492.42    500.72601   -103.17842    90.727648    90.731363    90.562029    103.17842 -0.0037801076 
     260    745242.72    501.09974    260.43015    90.732182    90.673733    90.584709   -260.43015 -0.0037303265 
     280    745502.72    501.52444    373.96567    90.736716    90.738239    90.547367   -373.96567 -0.0036805454 
     300    745619.66    499.90577   -45.960126    90.741249    90.754268    90.541052    45.960126 -0.0036307642 
     320    745064.36    498.20264   -197.08377    90.745783    90.737056    90.486263    197.08377 -0.0035809831 
     340     744981.3    500.12215    11.368047    90.750317    90.727936    90.480751   -11.368047 -0.003531202 
     360       744858    499.20133   -447.14567     90.75485    90.788185    90.401223    447.14567 -0.0034814208 
     380    745452.26    499.09458   -168.83055    90.759384    90.854348    90.402945    168.83055 -0.0034316397 
     400    745778.48    498.20142   -360.94331    90.763918    90.908209    90.384407    360.94331 -0.0033818586 
     420    745353.68    496.32915    -192.2454    90.768451    90.871596    90.364806     192.2454 -0.0033320775 
     440    744441.26    497.30668    673.38173    90.772985    90.858078    90.263106   -673.38173 -0.0032822963 
     460    744218.86    500.53563   -48.177076    90.777519    90.879347    90.210515    48.177076 -0.0032325152 
     480     744897.7    498.19165   -166.77197    90.782052    90.934516    90.233516    166.77197 -0.0031827341 
     500    744795.84    499.78007   -387.60824    90.786586    90.943507    90.207751    387.60824 -0.003132953 
     520    744112.27    497.80073    284.58977     90.79112    90.898517    90.165064   -284.58977 -0.0030831718 
     540    744409.59    500.03195     280.9332    90.795653    90.949068    90.146454    -280.9332 -0.0030333907 
     560    745141.27    500.38183   -337.94362    90.800187    90.941771    90.237793    337.94362 -0.0029836096 
     580    745569.45    501.74258    5.5700239    90.804721    90.946116    90.280825   -5.5700239 -0.0029338285 
     600    744784.51     498.6389    228.04276    90.809254     90.91372     90.21341   -228.04276 -0.0028840473 
     620    745427.67    498.64094    219.39772    90.813788    90.927592    90.273032   -219.39772 -0.0028342662 
     640    745554.89    502.15122   -50.307812    90.818322    90.955837    90.255896    50.307812 -0.0027844851 
     660    745087.44    498.64752   -486.46046    90.822855    90.914349    90.235963    486.46046 -0.002734704 
     680    744538.38    500.66545   -3.2995171    90.827389    90.869643    90.209326    3.2995171 -0.0026849228 
     700    744751.23    501.59288   -283.77032    90.831923    90.893421    90.207007    283.77032 -0.0026351417 
     720     744656.2    501.41585    185.07924    90.836456    90.917899    90.166712   -185.07924 -0.0025853606 
     740    744141.61    502.78211    62.260355     90.84099    90.886336    90.131197   -62.260355 -0.0025355795 
     760    743798.48    502.73153     15.50367    90.845524    90.863251    90.108027    -15.50367 -0.0024857983 
     780     743055.6    499.78953   -273.14296    90.850057    90.788399    90.087752    273.14296 -0.0024360172 
     800    742974.53    501.78347   -169.16518    90.854591    90.779035    90.082719    169.16518 -0.0023862361 
     820    744191.26    502.63507   -360.36286    90.859125     90.88533    90.120217    360.36286 -0.002336455 
     840    744203.86    499.22347    -461.1512    90.863658    90.829598    90.172542     461.1512 -0.0022866738 
     860    743806.95    499.76014    58.971771    90.868192    90.827352    90.122181   -58.971771 -0.0022368927 
     880     742896.9     498.5892    106.28542    90.872726    90.693035    90.140728   -106.28542 -0.0021871116 
     900    742935.29    502.94906    255.70783    90.877259    90.654114    90.179589   -255.70783 -0.0021373304 
     920    743520.68    498.97262    91.883768    90.881793    90.686144    90.214269   -91.883768 -0.0020875493 
     940    744812.15    496.57826   -498.21007    90.886327    90.786656    90.266412    498.21007 -0.0020377682 
     960    745353.17    497.00089   -307.31405     90.89086    90.832912    90.281477    307.31405 -0.0019879871 
     980    744987.39    498.74447   -519.02792    90.895394    90.781429    90.283841    519.02792 -0.0019382059 
    1000    745348.65    499.88143    80.724457    90.899928    90.796485     90.30814   -80.724457 -0.0018884248 
    1020    746042.44    498.13837    334.69687    90.904461    90.820516    90.363776   -334.69687 -0.0018386437 
    1040    746528.22    498.12838   -96.861844    90.908995     90.80778    90.430787    96.861844 -0.0017888626 
    1060    746308.63    499.20918   -102.27871    90.913529    90.784952     90.42241    102.27871 -0.0017390814 
    1080    745834.22     500.0346   -23.926829    90.918062    90.788605     90.35679    23.926829 -0.0016893003 
    1100    746408.72    497.94954    -471.7745    90.922596     90.78176    90.428699     471.7745 -0.0016395192 
    1120    746076.38    501.01344   -301.24881     90.92713    90.639925    90.525362    301.24881 -0.0015897381 
    1140    745292.85    501.21807     416.3872    90.931663    90.553134    90.512454    -416.3872 -0.0015399569 
    1160    745339.39    502.88155    304.21152    90.936197    90.603201    90.463574   -304.21152 -0.0014901758 
    1180     745196.9    501.52234   -270.97792    90.940731    90.665261    90.379865    270.97792 -0.0014403947 
    1200    745082.72    499.51413   -39.946602    90.945264    90.601431    90.425172    39.946602 -0.0013906136 
    1220    744633.77    501.05479   -173.85523    90.949798     90.60529    90.362333    173.85523 -0.0013408324 
    1240    744746.36     501.5944    82.852737    90.954331    90.575394    90.401319   -82.852737 -0.0012910513 
    1260    745181.82    498.59384    278.12615    90.958865    90.599656    90.425448   -278.12615 -0.0012412702 
    1280       745291    499.19864    416.58482    90.963399    90.636604    90.397323   -416.58482 -0.0011914891 
    1300    745800.69    498.96268    -536.6468    90.967932    90.716832     90.37464     536.6468 -0.0011417079 
    1320    745260.01    499.50642   -720.08444    90.972466    90.698635    90.322739    720.08444 -0.0010919268 
    1340    745969.95    499.62031    14.275524       90.977    90.719314    90.383669   -14.275524 -0.0010421457 
    1360     746028.2    502.49053   -376.90018    90.981533    90.720236    90.385303    376.90018 -0.00099236455 
    1380    746123.15    503.11194     292.2455    90.986067     90.77656    90.336217    -292.2455 -0.00094258343 
    1400    745984.82    503.25229    536.95468    90.990601     90.77061    90.320888   -536.95468 -0.0008928023 
    1420    746600.59    503.19541    111.50412    90.995134    90.834552    90.327311   -111.50412 -0.00084302117 
    1440    747007.19    504.90316    62.790995    90.999668    90.876888    90.329899   -62.790995 -0.00079324005 
    1460    746976.86    504.74616   -103.51329    91.004202    90.878826    90.319805    103.51329 -0.00074345892 
    1480    747321.83    503.59439    131.96329    91.008735    90.874973    90.360848   -131.96329 -0.0006936778 
    1500    748030.85    503.55449   -8.1622747    91.013269    90.950698     90.36677    8.1622747 -0.00064389667 
    1520    747573.16    503.27116   -288.16926    91.017803    90.946688    90.310961    288.16926 -0.00059411554 
    1540    747210.08    503.11968    162.95205    91.022336    90.875549    90.333262   -162.95205 -0.00054433442 
    1560    746896.95     501.4758   -435.57204     91.02687    90.800032    90.366004    435.57204 -0.00049455329 
    1580    746952.68    502.38756   -30.275536    91.031404    90.757333    90.410761    30.275536 -0.00044477217 
    1600    747482.16    502.64843   -387.72783    91.035937    90.786938    90.440841    387.72783 -0.00039499104 
    1620    747590.15    499.08055   -278.33746    91.040471    90.772663    90.463627    278.33746 -0.00034520991 
    1640    747810.06    500.47148   -181.00511    91.045005    90.800984    90.457509    181.00511 -0.00029542879 
    1660    748080.43    501.13347    385.62737    91.049538    90.738579     90.54794   -385.62737 -0.00024564766 
    1680    748768.29    500.95165    574.45385    91.054072    90.772055    90.593263   -574.45385 -0.00019586654 
    1700    748115.41    501.47774    57.422283    91.058606    90.687839    90.593815   -57.422283 -0.00014608541 
    1720    747766.76    499.18066   -295.20073    91.063139    90.680624    90.554292    295.20073 -9.6304285e-05 
    1740    747090.18    500.52437    233.91335    91.067673    90.665426    90.483019   -233.91335 -4.6523159e-05 
    1760    746547.16    498.37051    -115.3023    91.072207    90.694267    90.383999     115.3023 3.2579671e-06 
    1780    746420.25    499.15449   -182.92813     91.07674    90.707907    90.350548    182.92813 5.3039093e-05 
    1800    746135.26    499.39243    -349.4053    91.081274    90.692915    90.326485     349.4053 0.00010282022 
    1820    745959.13    500.58859   -162.75556    91.085808    90.697978    90.295627    162.75556 0.00015260134 
    1840    745834.31    499.61837   -130.65766    91.090341    90.681699     90.29223    130.65766 0.00020238247 
    1860     746274.6     499.7157   -260.75592    91.094875    90.709887    90.312963    260.75592 0.0002521636 
    1880    747054.09    500.22001    148.57374    91.099409    90.733138     90.37963   -148.57374 0.00030194472 
    1900    746242.21     498.2394    253.71392    91.103942    90.692165    90.317701   -253.71392 0.00035172585 
    1920    745629.61    501.86426    538.25942    91.108476    90.611544    90.319357   -538.25942 0.00040150697 
    1940    746438.65    498.68661    325.93687     91.11301    90.673698    90.350882   -325.93687 0.0004512881 
    1960    747063.85     498.6515   -624.51615    91.117543    90.643587    90.452097    624.51615 0.00050106923 
    1980     746688.9     496.5948   -382.16716    91.122077    90.655444    90.390376    382.16716 0.00055085035 
    2000    746045.76    499.42739   -323.29717    91.126611    90.593966    90.369312    323.29717 0.00060063148 
    2020    746050.96    497.49498    108.37193    91.131144    90.623368    90.336128   -108.37193 0.0006504126 
    2040     745925.9    498.68653   -85.987927    91.135678    90.646814    90.293131    85.987927 0.00070019373 
    2060    746195.57    497.98966   -11.737001    91.140212    90.681686    90.286548    11.737001 0.00074997486 
    2080    747695.11     498.9341   -350.48193    91.144745    90.708132    90.437112    350.48193 0.00079975598 
    2100    747660.78    498.67683    177.60467    91.149279    90.738343    90.398353   -177.60467 0.00084953711 
    2120    747932.03    501.39706    158.96819    91.153813    90.717176    90.447751   -158.96819 0.00089931823 
    2140     748000.7     501.1799   -82.275011    91.158346    90.674479    90.494148    82.275011 0.00094909936 
    2160    748256.71    502.40496   -311.97739     91.16288    90.673849    90.521247    311.97739 0.00099888049 
    2180    747851.76    499.54865    30.087155    91.167414    90.626438    90.515088   -30.087155 0.0010486616 
    2200    747525.01    500.54905    -542.2891    91.171947    90.644187    90.453325     542.2891 0.0010984427 
    2220    747073.82    501.15501    129.78506    91.176481    90.618449    90.419909   -129.78506 0.0011482239 
    2240    747504.86     502.2106    173.35549    91.181015    90.634711    90.451348   -173.35549  0.001198005 
    2260    747764.76    500.62582    202.33841    91.185548    90.611011    90.501964   -202.33841 0.0012477861 
    2280    747941.35     501.5545   -146.94135    91.190082    90.629655    90.500214    146.94135 0.0012975672 
    2300    747894.68     501.4111    -222.6119    91.194616    90.611092    90.508607     222.6119 0.0013473484 
    2320    747933.34    502.02388   -354.32704    91.199149    90.604796    90.515076    354.32704 0.0013971295 
    2340    747689.39    500.90217    20.740964    91.203683    90.516868    90.568948   -20.740964 0.0014469106 
    2360    747864.77     501.4299   -7.5247703    91.208217     90.52907    90.573479    7.5247703 0.0014966917 
    2380    747303.57    500.29307    334.58533     91.21275     90.48344    90.546653   -334.58533 0.0015464729 
    2400    746793.25    498.98518   -28.627758    91.217284    90.428309    90.535487    28.627758  0.001596254 
    2420     747242.8    501.35124   -977.98021    91.221818     90.41986    90.593948    977.98021 0.0016460351 
    2440    747283.84    498.47364   -345.58005    91.226351    90.397882    90.616447    345.58005 0.0016958162 
    2460    746953.44    498.94182    610.77875    91.230885    90.411462    90.558277   -610.77875 0.0017455974 
    2480    746737.77     501.3482    277.47632    91.235419    90.410005     90.52909   -277.47632 0.0017953785 
    2500     747300.2    499.87418   -261.82791    91.239952    90.430828    90.571914    261.82791 0.0018451596 
    2520    747430.39    499.26457   -649.37891    91.244486     90.48742    90.526539    649.37891 0.0018949408 
    2540    746478.34    497.46512   -141.22782     91.24902     90.51299    90.381198    141.22782 0.0019447219 
    2560    746082.92    495.96189    554.36569    91.253553    90.543002    90.298893   -554.36569  0.001994503 
    2580    746177.69    499.50516   -9.3956624    91.258087    90.562412    90.286521    9.3956624 0.0020442841 
    2600    745984.53    499.65119   -388.96317    91.262621    90.538889    90.282114    388.96317 0.0020940653 
    2620    745900.04    498.01288   -490.59471    91.267154    90.510291    90.295927    490.59471 0.0021438464 
    2640    746128.45    498.24985   -403.21039    91.271688    90.454579    90.374719    403.21039 0.0021936275 
    2660    745842.93    499.14158   -61.961303    91.276222    90.379776    90.410416    61.961303 0.0022434086 
    2680     745583.2    500.77328    580.43775    91.280755    90.356273     90.39795   -580.43775 0.0022931898 
    2700    745994.88    499.81821    102.52725    91.285289    90.457682    90.341979   -102.52725 0.0023429709 
    2720    746850.62    500.91701   -602.78566    91.289822    90.529675    90.369196    602.78566  0.002392752 
    2740    746752.26    499.44662    93.548042    91.294356    90.568488    90.314088   -93.548042 0.0024425331 
    2760    746443.34    499.43505   -214.60362     91.29889    90.524284    90.316325    214.60362 0.0024923143 
    2780    747165.26    501.12654   -104.57524    91.303423    90.568275    90.355276    104.57524 0.0025420954 
    2800     746728.9    499.78149    5.6688754    91.307957    90.485435    90.380691   -5.6688754 0.0025918765 
    2820    746446.15    498.98121   -295.78299    91.312491    90.505178    90.322275    295.78299 0.0026416576 
    2840    747649.47    501.76488   -4.5855035    91.317024    90.523172    90.445406    4.5855035 0.0026914388 
    2860    748097.74    501.15708   -25.623765    91.321558    90.569702    90.448651    25.623765 0.0027412199 
    2880    747260.25    499.56907    519.27259    91.326092    90.557222     90.35536   -519.27259  0.002791001 
    2900    746334.55    497.34744   -90.049168    91.330625    90.499818    90.296186    90.049168 0.0028407821 
    2920    746671.93    501.97296    -632.1817    91.335159    90.480034    90.352273     632.1817 0.0028905633 
    2940    747269.61    500.28923    3.6613633    91.339693    90.438649    90.461483   -3.6613633 0.0029403444 
    2960    746899.89    500.74639    87.735754    91.344226    90.461358    90.389543   -87.735754 0.0029901255 
    2980    747380.63    500.78389    -51.30684     91.34876    90.512096    90.392534     51.30684 0.0030399066 
    3000    747437.79    500.25979   -82.897279    91.353294    90.533486    90.373603    82.897279 0.0030896878 
    3020     747380.8    499.70471    86.141799    91.357827    90.524741    90.370957   -86.141799 0.0031394689 
    3040    748234.11    500.34262   -522.71469    91.362361    90.626644    90.367921    522.71469   0.00318925 
    3060     749434.2     502.6274   -322.65107    91.366895    90.688728     90.44641    322.65107 0.0032390312 
    3080    748746.29    501.43323    493.99926    91.371428      90.6082    90.439211   -493.99926 0.0032888123 
    3100    748045.93    500.17872    191.73666    91.375962    90.601469    90.356845   -191.73666 0.0033385934 
    3120    748546.11     500.1883     98.45213    91.380496    90.639524    90.374818    -98.45213 0.0033883745 
    3140    749630.41    498.71755   -164.68902    91.385029    90.696408    90.444478    164.68902 0.0034381557 
    3160    750282.65    500.92064   -292.64206    91.389563    90.674721    90.540331    292.64206 0.0034879368 
    3180       750323    501.23188   -91.760986    91.394097    90.680458    90.534979    91.760986 0.0035377179 
    3200    749835.31    500.31629   -348.99894     91.39863    90.651384    90.500664    348.99894  0.003587499 
    3220    749011.16    499.88025   -185.48657    91.403164    90.626297    90.421733    185.48657 0.0036372802 
    3240     749444.6    500.93506    330.08889    91.407698    90.660925    90.435016   -330.08889 0.0036870613 
    3260    750468.72    499.35718    304.31344    91.412231    90.747741    90.467473   -304.31344 0.0037368424 
    3280    750028.75    498.37116    -96.47465    91.416765    90.788695    90.369169     96.47465 0.0037866235 
    3300     749043.7    499.78112   -255.00312    91.421299    90.727199    90.307177    255.00312 0.0038364047 
    3320    748555.57    500.03704    504.53196    91.425832    90.750186    90.220992   -504.53196 0.0038861858 
    3340    748006.34    500.01057    343.90716    91.430366    90.743831    90.156639   -343.90716 0.0039359669 
    3360    748530.17    499.99761   -244.83475      91.4349    90.777061    90.182278    244.83475  0.003985748 
    3380    748257.05    496.93849   -810.35742    91.439433    90.755928    90.165892    810.35742 0.0040355292 
    3400    747278.27    499.10432   -569.87489    91.443967    90.665028    90.133761    569.87489 0.0040853103 
    3420    746535.36    495.90621     239.3392    91.448501    90.616326    90.088083    -239.3392 0.0041350914 
    3440     747022.8    501.51229    23.181021    91.453034    90.658582     90.10042   -23.181021 0.0041848725 
    3460    747844.28    497.47265    165.54238    91.457568    90.678565    90.175154   -165.54238 0.0042346537 
    3480    747693.79    500.03222   -82.890843    91.462102    90.614595    90.216182    82.890843 0.0042844348 
    3500    747443.58    498.44934    -142.2572    91.466635    90.576883    90.219069     142.2572 0.0043342159 
    3520    747843.38    497.28081   -65.044086    91.471169    90.563954    90.275738    65.044086 0.0043839971 
    3540    747945.64    498.40127     227.8982    91.475703    90.578976    90.268634    -227.8982 0.0044337782 
    3560    748410.28    500.62292    140.78258    91.480236     90.57018    90.329007   -140.78258 0.0044835593 
    3580       748219    500.68473   -268.50123     91.48477    90.560226     90.31137    268.50123 0.0045333404 
    3600     748471.1    500.46833   -458.56605    91.489304    90.539466    90.358036    458.56605 0.0045831216 
    3620    748191.62    498.81741    -79.40386    91.493837    90.497434    90.361771     79.40386 0.0046329027 
    3640    748079.19    501.26619   -76.682132    91.498371    90.474002    90.367114    76.682132 0.0046826838 
    3660    747681.88     503.0636    156.56224    91.502905    90.454766     90.33385   -156.56224 0.0047324649 
    3680    747371.82    502.84729    249.00762    91.507438    90.444021    90.302643   -249.00762 0.0047822461 
    3700    747844.09    502.22227    196.94049    91.511972    90.547906    90.251565   -196.94049 0.0048320272 
    3720    748223.75    501.35024   -369.94483    91.516506    90.636803    90.204351    369.94483 0.0048818083 
    3740    747701.19    501.18879   -402.18235    91.521039    90.571617    90.201759    402.18235 0.0049315894 
    3760    747715.46    500.28368   -21.920457    91.525573    90.559427    90.211155    21.920457 0.0049813706 
    3780     747975.5    500.71981    137.14269    91.530107    90.612742    90.184963   -137.14269 0.0050311517 
    3800    748502.16    500.43146   -532.40739     91.53464    90.651636    90.205274    532.40739 0.0050809328 
    3820       748536    501.98052   -328.85688    91.539174    90.603289    90.253019    328.85688 0.0051307139 
    3840    748608.09    500.29346    260.56107    91.543708     90.56842     90.29199   -260.56107 0.0051804951 
    3860    748906.38    498.20626    444.19959    91.548241    90.603254    90.288768   -444.19959 0.0052302762 
    3880    748671.49    498.10834    403.34556    91.552775    90.625149    90.234175   -403.34556 0.0052800573 
    3900    748828.98    500.63828   -45.975535    91.557309    90.640667    90.233236    45.975535 0.0053298384 
    3920    749618.08    501.38677    -607.2988    91.561842    90.748414    90.216606     607.2988 0.0053796196 
    3940    749497.27    497.49606   -501.85971    91.566376    90.786748    90.159516    501.85971 0.0054294007 
    3960    748307.58    499.41146   -82.808686     91.57091    90.755086    90.043351    82.808686 0.0054791818 
    3980    747737.87    497.25641    323.58083    91.575443    90.685721     90.03916   -323.58083 0.0055289629 
    4000    747927.56    500.06664    74.913156    91.579977     90.72515    90.018405   -74.913156 0.0055787441 
    4020    748587.63    501.46394   -438.33879    91.584511    90.741715    90.076942    438.33879 0.0056285252 
    4040    748273.92    499.72872   -153.12911    91.589044    90.759342    90.017251    153.12911 0.0056783063 
    4060    747708.57    498.21849    108.61252    91.593578    90.711102    89.992619   -108.61252 0.0057280875 
    4080    747930.78    499.07771   -225.34121    91.598112     90.66566    90.060024    225.34121 0.0057778686 
    4100    747658.48     499.3012   -270.37731    91.602645    90.589849    90.098117    270.37731 0.0058276497 
    4120    747318.06    498.33048    113.38681    91.607179    90.578655    90.063766   -113.38681 0.0058774308 
    4140    747099.25    498.07356     655.4078    91.611713    90.572167    90.039388    -655.4078  0.005927212 
    4160    746796.91    500.45051    85.256675    91.616246    90.479779    90.090395   -85.256675 0.0059769931 
    4180    747039.63    499.34513   -416.65765     91.62078    90.431432    90.163393    416.65765 0.0060267742 
    4200    747702.52    499.22886   -315.09346    91.625314    90.505908    90.164679    315.09346 0.0060765553 
    4220    748357.75    499.50603   -250.40597    91.629847    90.529372    90.215839    250.40597 0.0061263365 
    4240    748455.11    498.35601     -79.5592    91.634381    90.507152    90.245262      79.5592 0.0061761176 
    4260    748614.93    501.56275    131.87067    91.638914    90.567693    90.199731   -131.87067 0.0062258987 
    4280    748947.86    499.73418    -306.7705    91.643448    90.680783    90.122847     306.7705 0.0062756798 
    4300    748901.89    500.03044   -197.70296    91.647982    90.763517    90.030717    197.70296  0.006325461 
    4320    748784.23    500.97251    305.81675    91.652515     90.78431    89.991502   -305.81675 0.0063752421 
    4340    748736.62     499.5824    178.79507    91.657049    90.791364    89.974338   -178.79507 0.0064250232 
    4360    748569.78    500.87175    -235.5905    91.661583    90.786345    89.954813     235.5905 0.0064748043 
    4380    748203.99    500.78541   -424.54485    91.666116    90.783418    89.909309    424.54485 0.0065245855 
    4400    748039.97    500.36092   -299.77877     91.67065    90.784068     89.88451    299.77877 0.0065743666 
    4420    748457.76    503.01727   -362.30941    91.675184    90.812493    89.902115    362.30941 0.0066241477 
    4440    748277.86    502.20661   -86.584581    91.679717    90.720257    89.967439    86.584581 0.0066739288 
    4460    747970.15    502.24843    112.11594    91.684251    90.658378    89.987375   -112.11594   0.00672371 
    4480    747747.14    500.60493   -103.17918    91.688785    90.640465    89.973874    103.17918 0.0067734911 
    4500    748549.09    501.98138   -221.02481    91.693318    90.807381    89.900362    221.02481 0.0068232722 
    4520    748781.99    499.42725    36.156493    91.697852    90.889549    89.842592   -36.156493 0.0068730533 
    4540    748541.36     499.7721   -52.387109    91.702386    90.898907    89.800035    52.387109 0.0069228345 
    4560    748198.83     500.1241    225.21628    91.706919    90.885918    89.767333   -225.21628 0.0069726156 
    4580    747579.34    499.61415    117.69381    91.711453    90.875141     89.69921   -117.69381 0.0070223967 
    4600    747272.82    498.46996   -330.35743    91.715987     90.86653    89.666497    330.35743 0.0070721779 
    4620    747179.46    498.34072   -568.37539     91.72052    90.827595    89.689292    568.37539  0.007121959 
    4640       746782    497.64337   -413.42201    91.725054    90.804613    89.659839    413.42201 0.0071717401 
    4660    746152.87    497.55621   -175.95106    91.729588    90.719766    89.663658    175.95106 0.0072215212 
    4680    746258.61    500.25558    258.59336    91.734121    90.660993    89.730063   -258.59336 0.0072713024 
    4700    746643.76    498.19165    194.17601    91.738655    90.643198    89.789561   -194.17601 0.0073210835 
    4720    746375.37     498.5243   -101.58068    91.743189    90.632476    89.763468    101.58068 0.0073708646 
    4740    745866.33    499.43117   -176.15505    91.747722    90.545362    89.784115    176.15505 0.0074206457 
    4760    746737.18    498.90971   -438.24015    91.752256    90.551245    89.878662    438.24015 0.0074704269 
    4780     746959.1    500.67624   -58.102118     91.75679    90.543106    89.909012    58.102118  0.007520208 
    4800    746247.45    501.04753   -216.91132    91.761323    90.546671    89.815379    216.91132 0.0075699891 
    4820    745316.25    499.04225    218.40956    91.765857    90.511698    89.733529   -218.40956 0.0076197702 
    4840     745975.4    499.90253   -12.891729    91.770391    90.580225     89.74051    12.891729 0.0076695514 
    4860    746194.12    501.85526   -431.74509    91.774924    90.593701    89.749034    431.74509 0.0077193325 
    4880    746393.36    502.16226   -144.01236    91.779458    90.682999    89.680166    144.01236 0.0077691136 
    4900    746079.54    502.68312    30.324767    91.783992    90.654445    89.666266   -30.324767 0.0078188947 
    4920    746174.72    501.22955    48.081199    91.788525    90.671645    89.656265   -48.081199 0.0078686759 
    4940    746427.13    500.44905    118.71775    91.793059    90.587523    89.765445   -118.71775  0.007918457 
    4960    746759.11    500.97285    155.95848    91.797593     90.56022    89.828008   -155.95848 0.0079682381 
    4980    746872.17    501.69214    70.929494    91.802126    90.509718    89.887298   -70.929494 0.0080180192 
    5000    746980.14    500.37201   -218.91014     91.80666    90.549934    89.855927    218.91014 0.0080678004 
    5020    747408.78    502.22574   -367.17551    91.811194    90.526949    89.925876    367.17551 0.0081175815 
    5040    747379.82    501.63713   -500.97089    91.815727    90.522479    89.922392    500.97089 0.0081673626 
    5060    747227.78    501.14505    64.138846    91.820261    90.492095    89.929845   -64.138846 0.0082171437 
    5080     747674.7    501.33947    438.49675    91.824795    90.516193    89.955234   -438.49675 0.0082669249 
    5100    748668.76    501.01754   -286.92144    91.829328    90.579069    90.007863    286.92144  0.008316706 
    5120    749526.84     503.7505   -29.963038    91.833862    90.677035    90.009227    29.963038 0.0083664871 
    5140    749579.14    502.79474   -258.74799    91.838396    90.697942    89.990314    258.74799 0.0084162683 
    5160    749610.91    498.72213   -171.69694    91.842929    90.664317    90.023061    171.69694 0.0084660494 
    5180    750015.28    500.61178    296.66897    91.847463     90.69203    90.039656   -296.66897 0.0085158305 
    5200    749960.27    502.90607   -143.04311    91.851997    90.650131     90.07022    143.04311 0.0085656116 
    5220    750579.72    501.24141   -243.22004     91.85653    90.715301    90.075409    243.22004 0.0086153928 
    5240    749675.06    501.21849   -9.9628419    91.861064    90.708791    89.968859    9.9628419 0.0086651739 
    5260    748890.57    497.98426    358.97418    91.865598     90.74638    89.833051   -358.97418  0.008714955 
    5280    749371.84    497.97718    235.99155    91.870131    90.769522    89.863428   -235.99155 0.0087647361 
    5300    749989.03     498.2703    -1043.872    91.874665    90.823888     89.87917     1043.872 0.0088145173 
    5320    749121.15    500.02264   -612.35457    91.879199    90.808481    89.785963    612.35457 0.0088642984 
    5340     748100.6    497.36266   -288.19727    91.883732     90.81809    89.649735    288.19727 0.0089140795 
    5360    749083.38    498.68376   -101.69106    91.888266     90.82533    89.755924    101.69106 0.0089638606 
    5380    749518.88    500.18465    228.78615      91.8928    90.802849    89.825908   -228.78615 0.0090136418 
    5400    749169.78    499.26528    580.03129    91.897333    90.758389    89.823622   -580.03129 0.0090634229 
    5420    749486.87    500.79538   -26.193043    91.901867    90.783718    89.832137    26.193043  0.009113204 
    5440    749804.15    500.67857   -991.08773    91.906401    90.797503    89.852089    991.08773 0.0091629851 
    5460    749852.34      500.243   -71.215213    91.910934    90.797618    89.853317    71.215213 0.0092127663 
    5480    750131.74     500.3377   -16.326794    91.915468    90.812797     89.86734    16.326794 0.0092625474 
    5500    750599.33    497.60629   -107.62604    91.920002    90.839462    89.892528    107.62604 0.0093123285 
    5520    750821.72    499.94796   -147.44046    91.924535    90.820055     89.93394    147.44046 0.0093621096 
    5540    750126.16    499.53838   -340.20474    91.929069    90.779498    89.886336    340.20474 0.0094118908 
    5560    750426.37    499.33389   -100.71385    91.933603    90.813238    89.884466    100.71385 0.0094616719 
    5580     750027.5    499.77832    296.57291    91.938136    90.847823    89.798062   -296.57291  0.009511453 
    5600    750212.52    500.85173   -82.235441     91.94267    90.901357    89.762891    82.235441 0.0095612341 
    5620    749694.37    501.05368   -435.38174    91.947204    90.865232    89.732132    435.38174 0.0096110153 
    5640    748370.98    502.27182   -491.00069    91.951737    90.817731    89.616164    491.00069 0.0096607964 
    5660    747746.69    501.29032    772.18366    91.956271    90.812385    89.542263   -772.18366 0.0097105775 
    5680    748355.65    503.39453    136.06936    91.960805    90.861129    89.562695   -136.06936 0.0097603587 
    5700    748392.98    504.07791   -732.25286    91.965338    90.948705    89.476505    732.25286 0.0098101398 
    5720    747160.71    501.74325   -255.56573    91.969872    90.877774    89.394493    255.56573 0.0098599209 
    5740    746386.02    502.28262   -622.48879    91.974405     90.86034    89.314536    622.48879  0.009909702 
    5760    746643.37    500.42357    323.85719    91.978939    90.769015    89.430816   -323.85719 0.0099594832 
    5780    746777.72     502.1393    449.79423    91.983473    90.691785    89.518666   -449.79423  0.010009264 
    5800    747078.69    502.00612    46.193887    91.988006    90.692666    89.549459   -46.193887  0.010059045 
    5820    747251.28    501.20779   -483.38948     91.99254    90.738606    89.520387    483.38948  0.010108827 
    5840    746540.18    499.91294   -270.28616    91.997074    90.696972    89.471844    270.28616  0.010158608 
    5860    746648.35    498.56072   -118.69428    92.001607    90.748082    89.430001    118.69428  0.010208389 
    5880    747394.64    499.49161   -354.74254    92.006141     90.79299    89.470702    354.74254   0.01025817 
    5900    748307.82    499.40402   -727.06956    92.010675    90.844449    89.524864    727.06956  0.010307951 
    5920    747694.19    500.15376    85.598453    92.015208    90.762169    89.528133   -85.598453  0.010357732 
    5940    747338.68    499.78539    202.76893    92.019742    90.749467     89.49368   -202.76893  0.010407513 
    5960    747617.72    497.91429    1.9400788    92.024276    90.791762     89.48098   -1.9400788  0.010457294 
    5980     748371.2    500.72965   -69.854374    92.028809    90.811759    89.547027    69.854374  0.010507076 
    6000    747879.57    500.13831   -146.17382    92.033343    90.774388    89.520632    146.17382  0.010556857 
    6020    747785.44    497.90315   -86.146903    92.037877     90.67239    89.605642    86.146903  0.010606638 
    6040    748022.38    500.16509   -173.71445     92.04241    90.661939     89.63995    173.71445  0.010656419 
    6060    747542.71    499.89911   -150.92796    92.046944    90.659886    89.580084    150.92796    0.0107062 
    6080    747708.69    500.62658   -60.399052    92.051478    90.675749    89.579888    60.399052  0.010755981 
    6100    748172.12    499.36909    343.22302    92.056011    90.661646    89.644937   -343.22302  0.010805762 
    6120    749009.71    499.82987   -90.966876    92.060545    90.688751    89.714054    90.966876  0.010855543 
    6140    749406.02    500.21683    -665.0804    92.065079    90.669369     89.77629     665.0804  0.010905325 
    6160    749323.45    501.91183   -361.21643    92.069612     90.74869     89.68352    361.21643  0.010955106 
    6180    748912.77    503.52148    189.93961    92.074146    90.742432    89.636135   -189.93961  0.011004887 
    6200    749289.78    501.86432    394.87071     92.07868    90.744447    89.674852   -394.87071  0.011054668 
    6220    749520.14    501.31588    379.98867    92.083213    90.759494    89.683134   -379.98867  0.011104449 
    6240     749634.8    502.04719    -412.5401    92.087747    90.777473    89.674673     412.5401   0.01115423 
    6260    748872.22    502.43687   -431.88022    92.092281    90.741003    89.615043    431.88022  0.011204011 
    6280    748578.41    501.97015   -315.56345    92.096814    90.714283    89.601858    315.56345  0.011253792 
    6300    748552.72    501.61713   -251.94656    92.101348    90.704991    89.603551    251.94656  0.011303574 
    6320    748953.54    501.54904   -361.16653    92.105882    90.682518    89.669333    361.16653  0.011353355 
    6340    748058.26    499.44515   -420.19006    92.110415    90.613797    89.625657    420.19006  0.011403136 
    6360    747747.78    498.82872    94.055964    92.114949    90.566624     89.63071   -94.055964  0.011452917 
    6380    747974.05    498.34632   -1.7926637    92.119483    90.588042    89.632223    1.7926637  0.011502698 
    6400    748136.25    500.62104    143.56826    92.124016     90.58726    89.648022   -143.56826  0.011552479 
    6420    748355.63    500.32092    82.161163     92.12855    90.587963    89.669201   -82.161163   0.01160226 
    6440    749663.95    500.74532    -767.0492    92.133084    90.699628    89.710962     767.0492  0.011652041 
    6460    750027.34    496.69028   -738.26449    92.137617    90.796117    89.654654    738.26449  0.011701823 
    6480    749857.56    498.56766    189.35339    92.142151    90.798167    89.627926   -189.35339  0.011751604 
    6500    749698.21    499.59377    233.37295    92.146685    90.775961    89.626391   -233.37295  0.011801385 
    6520    749811.35    498.93274   -58.090823    92.151218    90.796801    89.614933    58.090823  0.011851166 
    6540    749899.79    498.23517    214.40796    92.155752    90.740441    89.676758   -214.40796  0.011900947 
    6560    749367.23    499.76473    200.60403    92.160286    90.749711     89.59951   -200.60403  0.011950728 
    6580    748734.01    500.04594   -591.64661    92.164819    90.733896    89.534998    591.64661  0.012000509 
    6600    748274.98    498.50698   -263.43508    92.169353    90.696189    89.512904    263.43508   0.01205029 
    6620     748495.1     500.0828   -169.90444    92.173887    90.688459    89.542464    169.90444  0.012100072 
    6640    748565.84    500.18726   -148.27359     92.17842    90.706349    89.528861    148.27359  0.012149853 
    6660    748180.79    501.97321    11.850662    92.182954    90.681314     89.50311   -11.850662  0.012199634 
    6680     748054.3    500.44912   -70.416836    92.187488    90.646717    89.517731    70.416836  0.012249415 
    6700    748746.34    502.28886   -337.85436    92.192021    90.683747    89.559553    337.85436  0.012299196 
    6720    749176.98    503.72373   -534.86594    92.196555    90.714166     89.57661    534.86594  0.012348977 
    6740    749361.22    499.89206    229.59587    92.201089     90.74253    89.566227   -229.59587  0.012398758 
    6760    748817.05    500.00386    197.25029    92.205622     90.70968    89.529196   -197.25029  0.012448539 
    6780    748004.09    500.74751   -110.51036    92.210156    90.603029    89.532869    110.51036  0.012498321 
    6800    747993.04    501.56867    27.546614     92.21469    90.587231    89.542757   -27.546614  0.012548102 
    6820    749052.14    501.58528   -235.74565    92.219223    90.688851    89.564662    235.74565  0.012597883 
    6840    749586.55    499.78899   -584.34425    92.223757    90.725429    89.588021    584.34425  0.012647664 
    6860    749478.75    500.51456   -490.27237    92.228291    90.680631    89.614984    490.27237  0.012697445 
    6880    748879.03    501.54327   -282.21391    92.232824    90.552368    89.665701    282.21391  0.012747226 
    6900    748841.75    500.74326   -210.46792    92.237358    90.479857    89.728683    210.46792  0.012797007 
    6920    748867.08    502.08919    311.69866    92.241892    90.447684    89.759224   -311.69866  0.012846788 
    6940    750005.98    500.85631    341.91281    92.246425    90.478195    89.861001   -341.91281   0.01289657 
    6960     750165.2    497.96131   -132.50181    92.250959    90.491351    89.862595    132.50181  0.012946351 
    6980    749804.22    499.69695    -403.3982    92.255493    90.514411    89.792058     403.3982  0.012996132 
    7000    749254.67    499.91774   -205.19347    92.260026    90.471625    89.764268    205.19347  0.013045913 
    7020    749493.04    496.46864   -284.93588     92.26456    90.500452    89.759813    284.93588  0.013095694 
    7040     749401.6    499.01416    308.38093    92.269094    90.520836    89.724243   -308.38093  0.013145475 
    7060    749940.09    500.48744   -151.34451    92.273627    90.613797    89.692194    151.34451  0.013195256 
    7080    749485.59    497.99716    -628.7612    92.278161    90.561308    89.685383     628.7612  0.013245037 
    7100    749103.53    501.34739   -633.84578    92.282695    90.499292    89.696686    633.84578  0.013294819 
    7120    748713.94    499.00059    50.074261    92.287228    90.480067     89.66468   -50.074261    0.0133446 
    7140    749576.49    501.69702    216.67012    92.291762     90.50294    89.740881   -216.67012  0.013394381 
    7160     749360.7    499.70139    124.57082    92.296296    90.449318    89.763825   -124.57082  0.013444162 
    7180    749304.36      502.829   -85.991445    92.300829    90.441735    89.760192    85.991445  0.013493943 
    7200    749254.32    501.19052   -6.4231103    92.305363    90.470689    89.721065    6.4231103  0.013543724 
    7220    749219.89     499.9403    45.515153    92.309896    90.474215    89.709041   -45.515153  0.013593505 
    7240    749524.88    501.05997   -298.25326     92.31443    90.446448    89.768701    298.25326  0.013643286 
    7260    750083.89     499.3098   -504.77367    92.318964     90.47067    89.807191    504.77367  0.013693068 
    7280    750326.06    499.13292   -128.30815    92.323497    90.458842     89.84352    128.30815  0.013742849 
    7300    750489.34    500.56808    35.609439    92.328031      90.4159    89.901336   -35.609439   0.01379263 
    7320    750662.86    502.58611   -311.58728    92.332565    90.400168    89.933355    311.58728  0.013842411 
    7340    750010.53    500.89242   -266.95722    92.337098    90.354925    89.895781    266.95722  0.013892192 
    7360     748829.2    500.66842    -87.26087    92.341632    90.276285    89.827962     87.26087  0.013941973 
    7380    748856.72    499.80218   -270.25702    92.346166    90.259711    89.843348    270.25702  0.013991754 
    7400    748902.12    501.28779    124.98856    92.350699    90.217478    89.886442   -124.98856  0.014041535 
    7420    748691.92    497.53774    364.54103    92.355233    90.258245    89.816215   -364.54103  0.014091317 
    7440    749028.58    501.91922    82.559813    92.359767    90.339962    89.770917   -82.559813  0.014141098 
    7460    750112.64     498.9814   -657.02568      92.3643    90.438997    89.797987    657.02568  0.014190879 
    7480    750620.71     498.8262   -438.52666    92.368834    90.469424    89.824179    438.52666   0.01424066 
    7500    751028.53    498.66563   -607.25214    92.373368    90.467075    89.870904    607.25214  0.014290441 
    7520    751369.71    495.39042   -115.73678    92.377901    90.479545    89.894926    115.73678  0.014340222 
    7540    751602.87      500.174    308.76899    92.382435    90.531636    89.866671   -308.76899  0.014390003 
    7560    751575.45    500.75435    134.35917    92.386969    90.518354    89.872168   -134.35917  0.014439784 
    7580    752259.35    498.74316    -268.5943    92.391502    90.505563    89.962246     268.5943  0.014489566 
    7600    752196.35     497.7747   -318.96827    92.396036    90.463069    89.992552    318.96827  0.014539347 
    7620     751942.6    494.59848   -349.07316     92.40057    90.444933    89.975817    349.07316  0.014589128 
    7640    751463.03    499.11653   -192.92705    92.405103    90.456406    89.902617    192.92705  0.014638909 
    7660    751308.41    499.58055   -120.88178    92.409637    90.477235    89.859017    120.88178   0.01468869 
    7680    751295.71    499.08627   -182.38347    92.414171    90.519421    89.811216    182.38347  0.014738471 
    7700     751793.3    497.69348   -787.31835    92.418704    90.541062    89.844809    787.31835  0.014788252 
    7720    751654.11    499.27072   -523.18433    92.423238    90.548222    89.816666    523.18433  0.014838033 
    7740    750093.24    501.17173   -10.987131    92.427772    90.498298      89.6752    10.987131  0.014887815 
    7760    749506.36     501.9986    784.99726    92.432305    90.521675    89.577503   -784.99726  0.014937596 
    7780    749824.12    501.27745    274.94669    92.436839    90.559443    89.573713   -274.94669  0.014987377 
    7800    749549.88     502.5743    181.65996    92.441373    90.519589    89.575982   -181.65996  0.015037158 
    7820    749630.68    499.95339   -247.17471    92.445906    90.533077    89.567899    247.17471  0.015086939 
    7840    749947.69     501.6932   -722.23155     92.45044    90.612371    89.522973    722.23155   0.01513672 
    7860    750378.76    499.68745   -941.43218    92.454974    90.644196     89.53859    941.43218  0.015186501 
    7880    750560.51    501.50992   -271.01812    92.459507    90.691708    89.508969    271.01812  0.015236283 
    7900    750428.34    501.98079    105.36947    92.464041    90.678147    89.502202   -105.36947  0.015286064 
    7920    751021.15    500.54138    65.257312    92.468575     90.68811    89.558674   -65.257312  0.015335845 
    7940    751397.44    499.97873   -284.37045    92.473108    90.703471    89.583979    284.37045  0.015385626 
    7960    751314.05    500.78154    -512.7164    92.477642    90.779732    89.494402     512.7164  0.015435407 
    7980    750070.42     501.9938   -68.262687    92.482176    90.746743    89.374362    68.262687  0.015485188 
    8000     748106.8    503.14357    953.08618    92.486709    90.588391     89.29183   -953.08618  0.015534969 
    8020    748261.57    500.10363    724.01522    92.491243    90.499969    89.393181   -724.01522   0.01558475 
    8040     748752.8    500.90381   -436.95094    92.495777    90.485475     89.46181    436.95094  0.015634532 
    8060    749809.26    500.72269   -1265.6334     92.50031    90.514898    89.554527    1265.6334  0.015684313 
    8080    749602.82    496.32483    -885.9113    92.504844    90.508148    89.532159     885.9113  0.015734094 
    8100    748752.38    499.62954    162.40143    92.509378     90.41385    89.519469   -162.40143  0.015783875 
    8120    748995.51    500.47551    260.37571    92.513911    90.499313    89.459588   -260.37571  0.015833656 
    8140    750195.09     500.8547    31.965689    92.518445    90.564342    89.534138   -31.965689  0.015883437 
    8160    750303.71    500.54149    139.00105    92.522979    90.579771    89.527461   -139.00105  0.015933218 
    8180    749385.35    499.22583    247.63518    92.527512    90.527166    89.465458   -247.63518  0.015982999 
    8200    748629.26    496.86268    151.60695    92.532046     90.48824    89.409258   -151.60695  0.016032781 
    8220    748314.12    499.71115   -107.23407     92.53658    90.450576    89.404455    107.23407  0.016082562 
    8240    748181.13    499.97703   -220.66218    92.541113    90.473462    89.361576    220.66218  0.016132343 
    8260     748799.2    499.33682   -402.79498    92.545647    90.557842    89.347687    402.79498  0.016182124 
    8280    749181.02    499.24436    -748.3118    92.550181    90.504187     89.44186     748.3118  0.016231905 
    8300    749440.82     495.0938   -268.67151    92.554714    90.364878    89.606422    268.67151  0.016281686 
    8320    749757.54    500.20743    -344.5613    92.559248    90.325111    89.679364     344.5613  0.016331467 
    8340    750417.78    501.81914   -295.63717    92.563782    90.423746    89.656036    295.63717  0.016381248 
    8360     750589.7     502.4942    121.19873    92.568315     90.45149    89.644678   -121.19873   0.01643103 
    8380    750770.98    501.10466    379.48524    92.572849    90.450935    89.662488   -379.48524  0.016480811 
    8400    750336.52    500.84875    284.70124    92.577383    90.378893     89.67764   -284.70124  0.016530592 
    8420    750542.43    500.78541   -507.73196    92.581916    90.393091    89.683768    507.73196  0.016580373 
    8440    750608.31    502.53544    15.456025     92.58645    90.378999    89.701233   -15.456025  0.016630154 
    8460     750333.9    502.11584   -51.682812    92.590984     90.32372    89.718924    51.682812  0.016679935 
    8480    749942.69    500.79111   -310.78633    92.595517    90.253874    89.737147    310.78633  0.016729716 
    8500    750073.07    502.93833   -505.12727    92.600051    90.234905    89.767221    505.12727  0.016779497 
    8520    749585.55    504.10578   -230.22199    92.604585    90.181687     89.75742    230.22199  0.016829279 
    8540     750028.1    502.91696   -132.69995    92.609118    90.178535    89.809154    132.69995   0.01687906 
    8560    750873.16    501.39437    148.27144    92.613652    90.236783    89.847907   -148.27144  0.016928841 
    8580    752099.24    503.74806   -72.977968    92.618186    90.309189    89.918063    72.977968  0.016978622 
    8600    751402.53    503.70848   -58.028159    92.622719     90.22663    89.912566    58.028159  0.017028403 
    8620    749897.92    504.53727    73.044554    92.627253    90.163697    89.790762   -73.044554  0.017078184 
    8640    750717.52    501.39465   -236.15958    92.631787    90.254029    89.794537    236.15958  0.017127965 
    8660    752158.01    498.65192   -515.27694     92.63632    90.291964    89.924636    515.27694  0.017177746 
    8680     752099.5    499.72603   -169.96891    92.640854    90.251147    89.953905    169.96891  0.017227528 
    8700    751879.54     499.8993   -229.95464    92.645388    90.215899     89.95833    229.95464  0.017277309 
    8720     752092.5    499.99313    9.1521511    92.649921    90.228495    89.966845   -9.1521511   0.01732709 
    8740    752426.96    500.12687    82.477969    92.654455    90.202094    90.028792   -82.477969  0.017376871 
    8760    753543.81    498.51398   -222.59975    92.658988    90.221864    90.138257    222.59975  0.017426652 
    8780    753856.98    499.80554   -358.32332    92.663522    90.217722    90.175446    358.32332  0.017476433 
    8800    753074.43    499.18389   -272.00366    92.668056    90.173236    90.121871    272.00366  0.017526214 
    8820    753255.07    499.69617    207.75102    92.672589    90.186513    90.125808   -207.75102  0.017575995 
    8840    753497.02    497.13563    247.27131    92.677123    90.272329    90.064646   -247.27131  0.017625777 
    8860    753512.31    499.30142   -41.627576    92.681657    90.330101    90.004468    41.627576  0.017675558 
    8880    753804.14    499.85389   -250.88811     92.68619    90.377851    89.987352    250.88811  0.017725339 
    8900    753491.51    499.71916   -539.73745    92.690724    90.364693    89.958729    539.73745   0.01777512 
    8920    752733.66    501.12085   -460.10875    92.695258     90.30307    89.925179    460.10875  0.017824901 
    8940    752275.42    499.83292    19.775621    92.699791     90.31952    89.849671   -19.775621  0.017874682 
    8960    752236.01    499.49233    6.4613716    92.704325    90.325598    89.834526   -6.4613716  0.017924463 
    8980    752465.61    502.63825   -437.48691    92.708859    90.380067    89.803396    437.48691  0.017974244 
    9000     751746.4    500.53543   -301.11159    92.713392    90.399823    89.693569    301.11159  0.018024026 
    9020    752250.71    500.51861    6.2944584    92.717926     90.40157    89.747616   -6.2944584  0.018073807 
    9040    752539.26    500.81416     3.379802     92.72246    90.405401    89.773848    -3.379802  0.018123588 
    9060     752617.4    501.35457   -196.13357    92.726993    90.414667    89.769579    196.13357  0.018173369 
    9080    752875.43    502.37965   -254.82852    92.731527    90.482819    89.728332    254.82852   0.01822315 
    9100    753143.25    501.56444   -600.46802    92.736061    90.562144    89.677243    600.46802  0.018272931 
    9120    752943.26    501.92965   -258.79778    92.740594    90.598319    89.613252    258.79778  0.018322712 
    9140    752292.15    505.26343     272.2137    92.745128    90.543818    89.585273    -272.2137  0.018372493 
    9160    752907.09    503.66022    181.15121    92.749662    90.543687    89.654249   -181.15121  0.018422275 
    9180    753272.98    501.57858   -788.71936    92.754195    90.581167     89.65632    788.71936  0.018472056 
    9200    751931.45    499.88325   -189.00928    92.758729    90.570955    89.502365    189.00928  0.018521837 
    9220    750930.07    499.73883    212.10839    92.763263     90.48292    89.465764   -212.10839  0.018571618 
    9240    750972.84    500.81309   -298.81623    92.767796    90.420229    89.528516    298.81623  0.018621399 
    9260    751455.75    499.57141   -264.23263     92.77233    90.409501    89.592339    264.23263   0.01867118 
    9280    751345.11    499.25573   -388.17961    92.776864    90.399955     89.58423    388.17961  0.018720961 
    9300    751528.38    499.52726   -21.254487    92.781397    90.419981    89.581858    21.254487  0.018770742 
    9320    752192.18    499.37149    55.688515    92.785931    90.452481    89.624387   -55.688515  0.018820524 
    9340    752988.69     498.9098   -495.32053    92.790465    90.485403    89.682267    495.32053  0.018870305 
    9360    753168.63    497.86623   -524.68887    92.794998    90.512565    89.672398    524.68887  0.018920086 
    9380    753190.08     499.0501   -471.88106    92.799532    90.513135    89.670006    471.88106  0.018969867 
    9400     753359.3    498.58873    460.61555    92.804066    90.488131    89.710552   -460.61555  0.019019648 
    9420    753279.45    499.35017    415.47206    92.808599    90.452847    89.731652   -415.47206  0.019069429 
    9440    753279.28    498.57858    81.782268    92.813133    90.421048    89.758803   -81.782268   0.01911921 
    9460    753128.88    498.45266    202.84596    92.817667    90.389189    89.768128   -202.84596  0.019168991 
    9480    752857.56    500.43801   -460.70941      92.8222    90.386571    89.734005    460.70941  0.019218773 
    9500    753029.21     498.3391   -243.14243    92.826734    90.442774    89.694306    243.14243  0.019268554 
    9520    751824.29    501.51587     71.76099    92.831268    90.282011    89.705866    -71.76099  0.019318335 
    9540     750963.6    499.69355    -355.1812    92.835801     90.16556    89.714514     355.1812  0.019368116 
    9560    751304.88    500.55657   -1026.4399    92.840335    90.164767    89.751692    1026.4399  0.019417897 
    9580    750985.21    501.83046   -505.13573    92.844869    90.195736    89.678322    505.13573  0.019467678 
    9600    751016.25     501.2782    133.71355    92.849402    90.205445    89.667996   -133.71355  0.019517459 
    9620    751130.23    499.12334     -106.191    92.853936    90.174992    89.707511      106.191   0.01956724 
    9640    751026.87    504.28463    49.066913     92.85847    90.076802    89.788557   -49.066913  0.019617022 
    9660    750424.61    500.67077   -79.426171    92.863003    90.007095    89.781653    79.426171  0.019666803 
    9680    750432.85    503.01584   -287.47817    92.867537    90.024015    89.761382    287.47817  0.019716584 
    9700    750163.73    500.08812    310.18103    92.872071    90.054355    89.694582   -310.18103  0.019766365 
    9720    749519.32    500.63396   -137.53685    92.876604    90.053993    89.613519    137.53685  0.019816146 
    9740    749526.52    502.28761   -136.89293    92.881138    90.049285     89.61469    136.89293  0.019865927 
    9760    750241.06    499.84466   -650.95369    92.885672    90.113677    89.631651    650.95369  0.019915708 
    9780     750450.4    500.47431     -333.176    92.890205    90.109933    89.656009      333.176  0.019965489 
    9800    751142.22    498.38817   -42.284634    92.894739    90.134137    89.710185    42.284634  0.020015271 
    9820    751354.67    501.67172   -316.18561    92.899273     90.15863    89.706801    316.18561  0.020065052 
    9840    751614.44    501.60772   -99.651122    92.903806    90.155551    89.736502    99.651122  0.020114833 
    9860    751414.03    501.28073   -101.72227     92.90834    90.163846    89.699944    101.72227  0.020164614 
    9880    752200.96    501.67483   -102.83306    92.912874    90.207099    89.746449    102.83306  0.020214395 
    9900    752837.14    499.65063    9.4977483    92.917407    90.235564    89.789637   -9.4977483  0.020264176 
    9920     752941.8     498.6199   -93.839298    92.921941    90.257223    89.776189    93.839298  0.020313957 
    9940    752396.95    498.98049   -484.22025    92.926475    90.238246    89.725714    484.22025  0.020363738 
    9960     752431.1    497.76536   -640.02559    92.931008    90.216157    89.747377    640.02559   0.02041352 
    9980    752918.99    502.44668   -199.46753    92.935542    90.254634    89.762907    199.46753  0.020463301 
   10000    752354.41    499.88665   -70.734968    92.940076    90.216882    89.728754    70.734968  0.020513082 
   10020    752172.87     497.7726   -366.81917    92.944609    90.220981    89.698652    366.81917  0.020562863 
   10040    752449.59     500.5928    -479.6183    92.949143    90.190771     89.75733     479.6183  0.020612644 
   10060    752386.84    500.21512   -957.04572    92.953677    90.222279    89.714125    957.04572  0.020662425 
   10080    752394.54    500.63619    250.60647     92.95821    90.173346    89.759349   -250.60647  0.020712206 
   10100    751984.88    500.43252    428.22549    92.962744    90.107229    89.771926   -428.22549  0.020761987 
   10120    751643.54     500.5962    563.99384    92.967278    90.018864    89.814879   -563.99384  0.020811769 
   10140    751855.19    499.73581   -80.101623    92.971811    89.998336    89.856279    80.101623   0.02086155 
   10160    752218.55     499.7713   -363.72689    92.976345    89.973522    89.920113    363.72689  0.020911331 
   10180    752881.66    499.16378   -447.33587    92.980879    90.014991    89.953533    447.33587  0.020961112 
   10200    752497.44    500.03952   -604.86911    92.985412    90.038199    89.880071    604.86911  0.021010893 
   10220    751823.31    499.73712    79.069619    92.989946    90.040183    89.793195   -79.069619  0.021060674 
   10240    751389.65    500.23371    -85.95763    92.994479    90.015087    89.762044     85.95763  0.021110455 
   10260    750604.05    499.68345    -17.01428    92.999013    89.999499    89.679354     17.01428  0.021160236 
   10280    749877.03    498.69468    394.02041    93.003547    90.007716    89.579947   -394.02041  0.021210018 
   10300    749688.86    498.55319    100.45552     93.00808    90.018599    89.542275   -100.45552  0.021259799 
   10320    749852.82    499.69998   -284.36885    93.012614    90.030333    89.545821    284.36885   0.02130958 
   10340    749108.39    498.65823   -625.89325    93.017148    89.959338    89.523158    625.89325  0.021359361 
   10360    748921.17    500.21507   -621.79134    93.021681    90.040323    89.415926    621.79134  0.021409142 
   10380    749209.92    497.70864   -135.42612    93.026215    90.091153    89.395576    135.42612  0.021458923 
   10400    749082.98    499.86404   -51.304471    93.030749    90.083456     89.38371    51.304471  0.021508704 
   10420    749679.92    497.04362   -15.269768    93.035282     90.11669    89.417592    15.269768  0.021558486 
   10440    750409.95    498.38022   -275.15798    93.039816     90.19606    89.421546    275.15798  0.021608267 
   10460    751213.12    500.64157   -150.56105     93.04435    90.261858     89.44764    150.56105  0.021658048 
   10480    752090.66    499.54656   -118.39198    93.048883    90.342655    89.467681    118.39198  0.021707829 
   10500    752565.41    498.34327   -146.54777    93.053417     90.30499    89.557133    146.54777   0.02175761 
   10520    752814.55    496.61444   -258.83083    93.057951    90.280764    89.606454    258.83083  0.021807391 
   10540    753102.49    500.67363   -255.78629    93.062484    90.271896    89.645165    255.78629  0.021857172 
   10560    753572.87    501.11523   -168.00703    93.067018    90.246675    89.721856    168.00703  0.021906953 
   10580    753994.77     499.9568    7.0853155    93.071552    90.228819     89.78548   -7.0853155  0.021956735 
   10600    753721.28    499.41055   -69.529274    93.076085    90.155839    89.821191    69.529274  0.022006516 
   10620    753845.94    500.75906   -552.11022    93.080619    90.096892    89.890444    552.11022  0.022056297 
   10640     754099.3    500.77489   -791.48203    93.085153    90.081208    89.931932    791.48203  0.022106078 
   10660    754031.91    499.34564    12.877445    93.089686    90.034682    89.965982   -12.877445  0.022155859 
   10680    753511.92     502.0653    564.95585     93.09422    89.965592    89.968601   -564.95585   0.02220564 
   10700    753670.32    499.85149    65.517638    93.098754    89.999706    89.949023   -65.517638  0.022255421 
   10720       753952    499.07883   -1027.3591    93.103287    90.092859    89.885226    1027.3591  0.022305202 
   10740    753407.25    502.32531   -1000.3901    93.107821    90.079469    89.829259    1000.3901  0.022354984 
   10760    752801.89    499.46627    132.24178    93.112355    90.063381    89.768743   -132.24178  0.022404765 
   10780    752942.41    501.88762    550.89319    93.116888    90.125916    89.718832   -550.89319  0.022454546 
   10800    752893.37    499.92618    257.89053    93.121422    90.107733    89.726724   -257.89053  0.022504327 
   10820    752985.53    498.76447   -665.38769    93.125956    90.092482    89.748529    665.38769  0.022554108 
   10840    753175.38     499.1772   -768.99933    93.130489    90.129851    89.729568    768.99933  0.022603889 
   10860    753097.67    499.13745   -191.85015    93.135023    90.182565    89.663501    191.85015   0.02265367 
   10880    752789.97    498.15762    -288.1093    93.139557    90.174887    89.630136     288.1093  0.022703451 
   10900    752988.58    499.15584   -199.35498     93.14409     90.18491    89.639455    199.35498  0.022753233 
   10920    753403.82    498.07446   -51.958805    93.148624    90.185346    89.684089    51.958805  0.022803014 
   10940    753427.96    500.74684   -140.64937    93.153158    90.208296    89.659781    140.64937  0.022852795 
   10960    752796.44    500.61001    -27.50853    93.157691      90.1413    89.646848     27.50853  0.022902576 
   10980    752288.02    498.43079   -44.664007    93.162225    90.010806    89.711814    44.664007  0.022952357 
   11000    752458.28    498.85839   -25.124893    93.166759    89.983747    89.754735    25.124893  0.023002138 
   11020    752103.34     496.0318   -27.279205    93.171292    89.856223    89.835345    27.279205  0.023051919 
   11040     752671.9     496.9201   -6.8699191    93.175826    89.822331    89.932803    6.8699191    0.0231017 
   11060    753221.81    497.18378   -639.55961     93.18036    89.782334    90.034222    639.55961  0.023151482 
   11080    753284.74    496.13432   -611.97194    93.184893    89.804109    90.015531    611.97194  0.023201263 
   11100    753617.75    497.68825   -55.425468    93.189427    89.825783    90.029216    55.425468  0.023251044 
   11120    754027.84    495.59615   -172.86078    93.193961    89.869035    90.030473    172.86078  0.023300825 
   11140     754138.8     496.8406   -39.380863    93.198494     89.88263    90.025722    39.380863  0.023350606 
   11160     753949.7    498.68358   -491.38776    93.203028    89.871511    90.009905    491.38776  0.023400387 
   11180    754328.21    497.73476   -750.07098    93.207562    89.870689    90.051538    750.07098  0.023450168 
   11200    754391.58    498.16029    147.16057    93.212095    89.895011    90.030357   -147.16057  0.023499949 
   11220    754479.96    499.47935   -51.489443    93.216629    89.930329    90.001165    51.489443  0.023549731 
   11240    755018.68     499.3662    39.456088    93.221163    90.009854    89.981479   -39.456088  0.023599512 
   11260    755234.46    498.27685   -635.27868    93.225696    90.022312    89.990362    635.27868  0.023649293 
   11280     754777.5    499.34882   -531.91534     93.23023    89.989842    89.963988    531.91534  0.023699074 
   11300    754805.48    497.22297     286.5086    93.234764    90.004477     89.94832    -286.5086  0.023748855 
   11320    754960.49    500.07985   -369.35122    93.239297    89.907246    90.059709    369.35122  0.023798636 
   11340    754637.28    501.15877    -492.9907    93.243831    89.859337    90.064769     492.9907  0.023848417 
   11360    753311.34    499.28737    -347.3567    93.248365    89.894329    89.867154     347.3567  0.023898198 
   11380    753566.82    498.50333   -143.98138    93.252898    89.940596    89.847018    143.98138   0.02394798 
   11400    754514.82     501.3648   -159.40243    93.257432    90.037683    89.858674    159.40243  0.023997761 
   11420    753702.62    501.40126   -287.23454    93.261966    89.917794    89.877259    287.23454  0.024047542 
   11440     752925.2    500.17632    23.174776    93.266499    89.852069    89.845861   -23.174776  0.024097323 
   11460    752900.72    498.68886   -27.826694    93.271033    89.852648    89.837994    27.826694  0.024147104 
   11480    752884.68    498.43942    -278.9826    93.275567    89.904174    89.780229     278.9826  0.024196885 
   11500    752857.56    499.00841     211.3259      93.2801    89.849057    89.827701    -211.3259  0.024246666 
   11520    753345.16     501.5972   -558.84735    93.284634    89.861629    89.868937    558.84735  0.024296447 
   11540    753818.53    500.38411   -613.30648    93.289168     89.87808    89.904577    613.30648  0.024346229 
   11560    753937.62    499.40104   -297.10611    93.293701    89.922675    89.869821    297.10611   0.02439601 
   11580    753649.47    500.42942    14.488719    93.298235    89.972005    89.781854   -14.488719  0.024445791 
   11600    753953.66    500.93417   -250.98017    93.302769    90.099663    89.686476    250.98017  0.024495572 
   11620    754279.81    501.50892   -93.876315    93.307302    90.169169    89.651753    93.876315  0.024545353 
   11640    754073.28    501.98393    -41.36053    93.311836    90.205758    89.586497     41.36053  0.024595134 
   11660    753368.21    500.95033    293.17318     93.31637    90.212631    89.491566   -293.17318  0.024644915 
   11680    753959.97    501.44369    221.89884    93.320903    90.279225    89.491447   -221.89884  0.024694696 
   11700    754482.88    501.41022   -290.42393    93.325437    90.311616    89.517046    290.42393  0.024744478 
   11720    754544.78    499.95808   -354.39901     93.32997    90.256727    89.574483    354.39901  0.024794259 
   11740    753963.29    497.52228   -39.256278    93.334504    90.098195    89.658587    39.256278   0.02484404 
   11760    753951.96    497.89436   -398.12713    93.339038    90.079127    89.671862    398.12713  0.024893821 
   11780     754628.4    496.66457   -339.83739    93.343571     90.05433    89.772669    339.83739  0.024943602 
   11800    754351.56    497.64597   -410.27029    93.348105    89.989724      89.7998    410.27029  0.024993383 
   11820    754184.32     497.9054    156.84406    93.352639    89.940379    89.824785   -156.84406  0.025043164 
   11840    754554.89     498.3758    316.95174    93.357172    89.969616    89.835353   -316.95174  0.025092945 
   11860    754783.08    499.84933   -508.71892    93.361706    90.037465    89.790444    508.71892  0.025142727 
   11880     754691.3     499.2328   -524.71436     93.36624    90.053722    89.758959    524.71436  0.025192508 
   11900    754348.53    498.82416    9.5971206    93.370773     90.00312    89.764276   -9.5971206  0.025242289 
   11920     754563.2    498.57215   -318.99501    93.375307     90.01525    89.773362    318.99501   0.02529207 
   11940    753721.19    498.55997   -89.752076    93.379841    89.985808    89.698169    89.752076  0.025341851 
   11960    753535.19    499.47451     191.7273    93.384374    89.957826    89.699572    -191.7273  0.025391632 
   11980    754433.07    499.19175   -620.15675    93.388908    89.982293    89.777676    620.15675  0.025441413 
   12000    753960.93    501.69525   -928.53963    93.393442    89.915001    89.784281    928.53963  0.025491194 
   12020    753493.49     499.2875   -173.68369    93.397975    89.842127    89.797039    173.68369  0.025540976 
   12040     753954.5    501.01149    -171.4408    93.402509    89.893658    89.796114     171.4408  0.025590757 
   12060    754419.33    502.58936   -156.10919    93.407043    89.949561    89.791274    156.10919  0.025640538 
   12080    753605.93    501.65093    308.83116    93.411576    89.911823    89.727755   -308.83116  0.025690319 
   12100    753663.13    501.59456    -358.0439     93.41611    89.973282    89.668918     358.0439    0.0257401 
   12120    753717.26    501.65421   -230.67055    93.420644    90.065361    89.579331    230.67055  0.025789881 
   12140     753091.4    500.17785    95.562029    93.425177    90.062512    89.503434   -95.562029  0.025839662 
   12160    753992.02    502.47766    184.42606    93.429711    90.111786    89.557125   -184.42606  0.025889443 
   12180    754840.22    500.29205   -493.93506    93.434245    90.179697    89.586008    493.93506  0.025939225 
   12200    754708.72    500.72216   -789.75205    93.438778    90.203086    89.542831    789.75205  0.025989006 
   12220    754412.15    498.84961   -401.35066    93.443312     90.20464     89.50176    401.35066  0.026038787 
   12240    754818.39    499.43562   -32.951711    93.447846    90.170812    89.579204    32.951711  0.026088568 
   12260       755257    499.99864    412.27789    93.452379    90.191236    89.606611   -412.27789  0.026138349 
   12280    755045.46    499.19045    226.01312    93.456913    90.120884    89.647096   -226.01312   0.02618813 
   12300    755274.82    499.55612   -380.26557    93.461447    90.133383    89.657544    380.26557  0.026237911 
   12320    754945.89    500.95842   -518.82985     93.46598    90.073896    89.673333    518.82985  0.026287692 
   12340    753977.93    497.25086   -185.54699    93.470514    90.012436     89.61516    185.54699  0.026337474 
   12360    754218.65    499.04456    156.08289    93.475048    89.977239    89.674489   -156.08289  0.026387255 
   12380    754979.96     499.4847   -346.06189    93.479581    90.021603    89.716417    346.06189  0.026437036 
   12400    754725.46    499.01661   -64.343762    93.484115     89.99886    89.704487    64.343762  0.026486817 
   12420    754179.48    499.43088    204.86993    93.488649    89.978119     89.65591   -204.86993  0.026536598 
   12440    754254.31    498.82055   -268.79316    93.493182    89.967916    89.670625    268.79316  0.026586379 
   12460    755206.87     498.8917   -438.37109    93.497716    90.018183    89.729385    438.37109   0.02663616 
   12480    755024.81    500.26811   -342.70915     93.50225    89.982843    89.738633    342.70915  0.026685941 
   12500    754137.65    499.74087    59.953499    93.506783    89.920752    89.690734   -59.953499  0.026735723 
   12520    753908.58     499.2625    103.30948    93.511317    89.883038    89.696763   -103.30948  0.026785504 
   12540    754499.65    499.54867   -604.63526    93.515851    89.911765    89.734054    604.63526  0.026835285 
   12560    754530.65    502.37801   -755.42155    93.520384    89.879774     89.76533    755.42155  0.026885066 
   12580    754125.06    501.32665   -595.16846    93.524918    89.824263    89.768171    595.16846  0.026934847 
   12600    753598.38    501.37607    38.944576    93.529452    89.812717     89.71266   -38.944576  0.026984628 
   12620    752623.49    500.77897    29.987647    93.533985    89.789923    89.615004   -29.987647  0.027034409 
   12640    752948.82    503.29928   -500.45128    93.538519    89.852137    89.587323    500.45128   0.02708419 
   12660    753139.89    502.66598   -541.23025    93.543053    89.905755    89.552274    541.23025  0.027133972 
   12680    752888.84    503.48368    103.81479    93.547586    89.935742    89.488236   -103.81479  0.027183753 
   12700    752940.21    500.52109    556.13172     93.55212    89.996222    89.429866   -556.13172  0.027233534 
   12720    753976.42    501.65795   -162.51861    93.556654    90.090734    89.454658    162.51861  0.027283315 
   12740    755355.37    500.28034   -836.53978    93.561187    90.142534    89.562424    836.53978  0.027333096 
   12760    755207.63    500.40695   -952.54277    93.565721    90.134007    89.549038    952.54277  0.027382877 
   12780    754750.32     500.0739   -566.09533    93.570255    90.095819    89.528406    566.09533  0.027432658 
   12800     755039.9    497.54647    207.35503    93.574788    90.132366    89.522103   -207.35503  0.027482439 
   12820    755126.32    503.93769    109.13782    93.579322    90.174983    89.485702   -109.13782  0.027532221 
   12840    754822.74    499.48656   -192.73698    93.583856    90.136512    89.483568    192.73698  0.027582002 
   12860    754988.36    498.13834   -758.83528    93.588389     90.15665    89.478876    758.83528  0.027631783 
   12880    755000.86    498.40578   -368.02309    93.592923     90.11191    89.520446    368.02309  0.027681564 
   12900    754351.17    501.41987    353.88453    93.597457     90.11389    89.437115   -353.88453  0.027731345 
   12920    754558.42    499.58285    320.14564     93.60199    90.189475    89.382383   -320.14564  0.027781126 
   12940    755931.17    498.52183   -815.49601    93.606524    90.288822    89.442134    815.49601  0.027830907 
   12960    755331.68    497.59971   -763.84105    93.611058    90.160298    89.494267    763.84105  0.027880688 
   12980    754520.19    499.27115   -263.70809    93.615591    90.034177    89.519013    263.70809   0.02793047 
   13000    754819.17    499.65641   -92.711016    93.620125    90.001354    89.582805    92.711016  0.027980251 
[...]
  396740    833787.76    500.03503   -56.031591     180.6075    69.617735    66.313178    56.031591   0.98313071 
  396760    834181.97    501.63411   -416.84272    180.61204    69.610667    66.349601    416.84272    0.9831805 
  396780    834515.65    501.64081    -477.9093    180.61657    69.647143    66.339714     477.9093   0.98323028 
  396800    834512.31    501.72574    22.731895     180.6211    69.657269    66.328139   -22.731895   0.98328006 
  396820    834214.42    499.53876  -0.18082402    180.62564    69.675075    66.285854   0.18082402   0.98332984 
  396840    834605.71    499.90687   -264.07318    180.63017    69.679426     66.31114    264.07318   0.98337962 
  396860    835236.19    500.21945   -714.39944     180.6347    69.678541     66.36041    714.39944    0.9834294 
  396880    834887.49    498.17866   -314.75774    180.63924    69.666241    66.342752    314.75774   0.98347918 
  396900    834041.49    499.25947    195.35518    180.64377    69.685287     66.25575   -195.35518   0.98352896 
  396920    833976.47    499.63813    33.355404     180.6483    69.713139    66.222454   -33.355404   0.98357874 
  396940    834026.19     499.0289    22.036973    180.65284    69.722133    66.216196   -22.036973   0.98362853 
  396960    833075.83    498.54974   -86.681889    180.65737    69.708773    66.151761    86.681889   0.98367831 
  396980    833302.87    500.15784    191.29656    180.66191    69.753941    66.125282   -191.29656   0.98372809 
  397000    833287.46    496.39381    -250.4932    180.66644    69.792872    66.085517     250.4932   0.98377787 
  397020    833069.52    500.61526   -212.93132    180.67097    69.790128    66.069172    212.93132   0.98382765 
  397040    832224.25    498.91547    -61.36056    180.67551    69.753763    66.034887     61.36056   0.98387743 
  397060    832271.91     498.9623   -161.08596    180.68004      69.7939    65.999036    161.08596   0.98392721 
  397080    832316.07    499.43489     5.183036    180.68457    69.761263    66.031759    -5.183036   0.98397699 
  397100    832740.52    500.09335   -420.11236    180.68911    69.785564     66.04077    420.11236   0.98402677 
  397120    833945.48    499.27579   -685.37949    180.69364     69.83979    66.083321    685.37949   0.98407656 
  397140    834254.56    503.08754    -427.7931    180.69818    69.872808    66.074917     427.7931   0.98412634 
  397160    833691.84    499.93825    156.99276    180.70271    69.817163    66.081317   -156.99276   0.98417612 
  397180    834347.55    499.77766    399.93889    180.70724    69.843601    66.106599   -399.93889    0.9842259 
  397200    836075.96    500.63884   -202.90429    180.71178    69.917719     66.17166    202.90429   0.98427568 
  397220     836295.6    502.67588   -364.09505    180.71631    70.009191    66.100904    364.09505   0.98432546 
  397240     835858.9    499.18034   -199.00483    180.72084    69.981509    66.090863    199.00483   0.98437524 
  397260    836545.59    499.27121   -409.55305    180.72538    70.012835    66.113905    409.55305   0.98442502 
  397280    837027.44    501.28512    -210.6864    180.72991    70.060646    66.105185     210.6864    0.9844748 
  397300    837169.08    501.15489   -227.80595    180.73444    70.106744     66.07124    227.80595   0.98452459 
  397320    837736.97     499.8951    -364.2295    180.73898    70.157765     66.06632     364.2295   0.98457437 
  397340    837001.53     499.6465   -223.87201    180.74351    70.126546     66.03605    223.87201   0.98462415 
  397360    836781.47    498.64962    42.515537    180.74805    70.086653    66.054609   -42.515537   0.98467393 
  397380    836757.73    500.69141    -247.6773    180.75258    70.065161    66.071339     247.6773   0.98472371 
  397400    836671.78    501.06415   -418.48045    180.75711    70.081019    66.047946    418.48045   0.98477349 
  397420     835697.8    500.35928   -122.71229    180.76165    70.020041    66.026855    122.71229   0.98482327 
  397440    834701.25     498.4993    79.147267    180.76618    69.993825    65.971165   -79.147267   0.98487305 
  397460    834980.43    500.91528   -104.59982    180.77071    69.980977     66.00369    104.59982   0.98492283 
  397480    834751.82    500.45412   -442.90553    180.77525    69.999659    65.966354    442.90553   0.98497262 
  397500    833904.61    500.61727   -607.06179    180.77978     70.01132    65.886776    607.06179    0.9850224 
  397520    833530.55    498.06898   -474.62351    180.78431    70.000143    65.866084    474.62351   0.98507218 
  397540    833471.56    500.28937   -44.181568    180.78885     69.99766    65.862108    44.181568   0.98512196 
  397560    833991.57    499.67929   -153.81834    180.79338    70.024317     65.87646    153.81834   0.98517174 
  397580    834415.66    499.96341   -373.20268    180.79792    70.018203    65.914061    373.20268   0.98522152 
  397600    834303.79    499.45775   -298.31775    180.80245    69.922226    65.994032    298.31775    0.9852713 
  397620    834253.08     500.4577    72.673074    180.80698    69.912948    65.997123   -72.673074   0.98532108 
  397640    834493.61    500.47653    -106.4596    180.81152    69.920666    66.007209     106.4596   0.98537086 
  397660    834565.78    499.14199   -93.635039    180.81605    69.937498    65.995375    93.635039   0.98542065 
  397680    834953.62    500.28256   -339.76319    180.82058     69.90252    66.057426    339.76319   0.98547043 
  397700    834249.25    498.89376   -234.73138    180.82512    69.853532    66.046331    234.73138   0.98552021 
  397720    833611.91    498.12808   -211.31882    180.82965    69.797451    66.047245    211.31882   0.98556999 
  397740    833363.65    498.51295    69.699334    180.83419    69.819413    66.005151   -69.699334   0.98561977 
  397760    834135.82    498.34151   -326.63565    180.83872     69.81955    66.064523    326.63565   0.98566955 
  397780    833718.13    498.05979     -263.641    180.84325    69.828311    66.021502      263.641   0.98571933 
  397800    833124.31    497.59035   -327.06092    180.84779    69.838052    65.963622    327.06092   0.98576911 
  397820    832891.57    498.34022   -11.223207    180.85232    69.839962    65.941738    11.223207    0.9858189 
  397840     832044.3    497.67719    15.591355    180.85685    69.771826    65.937336   -15.591355   0.98586868 
  397860    831570.89    499.33417    29.401892    180.86139    69.791807      65.8793   -29.401892   0.98591846 
  397880    832337.93    496.90357   -21.812665    180.86592    69.803395    65.927468    21.812665   0.98596824 
  397900    832628.15    500.57875   -485.82764    180.87045    69.807728    65.944709    485.82764   0.98601802 
  397920    831432.84    498.77262    342.37436    180.87499    69.748787    65.904035   -342.37436    0.9860678 
  397940    831222.34    498.20639   -144.52627    180.87952    69.750174    65.884387    144.52627   0.98611758 
  397960    831213.08    500.20213   -646.38267    180.88406     69.76392     65.86902    646.38267   0.98616736 
  397980    831869.08    500.71519   -604.26793    180.88859    69.779697    65.904448    604.26793   0.98621714 
  398000    832160.44    500.82554   -384.20285    180.89312    69.808874    65.898325    384.20285   0.98626693 
  398020    832246.57    501.34473   -141.46562    180.89766    69.841931    65.872301    141.46562   0.98631671 
  398040    831606.05    497.47275   -263.99213    180.90219    69.824376    65.836503    263.99213   0.98636649 
  398060    831589.84    500.38436    -533.9882    180.90672    69.801653    65.855001     533.9882   0.98641627 
  398080    831471.16     500.7192    31.634687    180.91126    69.787265    65.857527   -31.634687   0.98646605 
  398100    831660.22    501.40758   -73.119514    180.91579    69.769974    65.887175    73.119514   0.98651583 
  398120    831229.48    500.24167    283.25609    180.92032    69.735258    65.884183   -283.25609   0.98656561 
  398140    830749.38    500.74239   -107.85121    180.92486    69.693129    65.884283    107.85121   0.98661539 
  398160    830592.67    500.73808   -293.68701    180.92939    69.657358     65.90403    293.68701   0.98666517 
  398180    830942.24    500.41914   -596.00309    180.93393    69.687079    65.901996    596.00309   0.98671496 
  398200    831070.54    498.62823   -331.41823    180.93846    69.713035     65.88598    331.41823   0.98676474 
  398220     831132.7    501.00568   -368.14596    180.94299    69.688866    65.912108    368.14596   0.98681452 
  398240    830349.65    498.76028   -252.95983    180.94753    69.617889    65.915493    252.95983    0.9868643 
  398260    829987.11    500.54607   -599.05893    180.95206    69.556339    65.943365    599.05893   0.98691408 
  398280     828874.8    498.76066   -482.16179    180.95659    69.473246    65.932104    482.16179   0.98696386 
  398300    827956.92    499.88488   -172.96888    180.96113    69.424572    65.903614    172.96888   0.98701364 
  398320     828080.8    501.09588   -13.274609    180.96566    69.385919    65.948541    13.274609   0.98706342 
  398340    828175.48    497.28797   -142.63883    180.97019    69.400825    65.940264    142.63883    0.9871132 
  398360    828036.43    496.42495    -72.19433    180.97473    69.373939    65.953091     72.19433   0.98716299 
  398380    828705.63    496.42168    -434.3716    180.97926    69.384406    65.994782     434.3716   0.98721277 
  398400    827852.66    498.98666   -210.96232     180.9838     69.31129    65.994748    210.96232   0.98726255 
  398420    827501.77    499.93945    126.21552    180.98833    69.333152    65.944322   -126.21552   0.98731233 
  398440    827954.87    496.47131   -80.830411    180.99286    69.359845    65.953387    80.830411   0.98736211 
  398460     828770.8    496.60568   -333.34207     180.9974     69.43554     65.94476    333.34207   0.98741189 
  398480    828730.14    497.39218     61.84798    181.00193    69.439283    65.936319    -61.84798   0.98746167 
  398500    828509.28    498.47306   -270.48343    181.00646     69.44997    65.906952    270.48343   0.98751145 
  398520    828783.33    500.42578   -428.21478      181.011    69.484076    65.894742    428.21478   0.98756123 
  398540    828945.48    498.42114   -165.69951    181.01553    69.532275    65.860297    165.69951   0.98761102 
  398560     829724.5    498.71759   -328.63016    181.02007    69.559587    65.894657    328.63016    0.9876608 
  398580    830394.45    500.30052    -78.77831     181.0246    69.529803     65.97446     78.77831   0.98771058 
  398600    829385.41    498.64955   -155.97008    181.02913    69.462142    65.956827    155.97008   0.98776036 
  398620    828192.88    499.74977    54.067111    181.03367    69.400599    65.918744   -54.067111   0.98781014 
  398640    828860.14    499.99979   -28.871101     181.0382     69.44135    65.931488    28.871101   0.98785992 
  398660    829197.17    500.35229    -224.4883    181.04273    69.457885    65.940944     224.4883    0.9879097 
  398680    828488.33    499.44271   -349.22302    181.04727    69.438344    65.901465    349.22302   0.98795948 
  398700    828283.98    500.33073   -231.81818     181.0518    69.407521    65.912818    231.81818   0.98800926 
  398720    828439.78    501.53886   -204.80528    181.05633    69.439079    65.893605    204.80528   0.98805905 
  398740    827843.35    499.65661    179.78132    181.06087    69.383726    65.897046   -179.78132   0.98810883 
  398760    828466.28    499.66192    10.017438     181.0654    69.424497    65.906253   -10.017438   0.98815861 
  398780    830038.94    500.79233   -353.25903    181.06994    69.464928    65.991277    353.25903   0.98820839 
  398800    830223.25    500.32012   -475.29115    181.07447    69.458079    66.010786    475.29115   0.98825817 
  398820    829716.89    501.61866   -213.62835      181.079    69.421476    66.003656    213.62835   0.98830795 
  398840    829297.81    501.49324     158.0839    181.08354    69.430698    65.959904    -158.0839   0.98835773 
  398860    829179.18    500.32142   -270.32118    181.08807    69.388381    65.989038    270.32118   0.98840751 
  398880    829214.57    499.48209    130.24545     181.0926    69.397432    65.981595   -130.24545   0.98845729 
  398900    830128.78    498.60854   -260.13676    181.09714    69.413861    66.037053    260.13676   0.98850708 
  398920    830594.55    497.05946   -506.07824    181.10167      69.4937    65.996542    506.07824   0.98855686 
  398940    830491.85    501.01404    57.714044     181.1062    69.524439    65.957556   -57.714044   0.98860664 
  398960    830579.32    496.85138     -32.9675    181.11074    69.561161    65.928029      32.9675   0.98865642 
  398980    831846.86    497.11341   -205.14656    181.11527    69.557153    66.030792    205.14656    0.9887062 
  399000    832751.14    495.77083   -347.99266    181.11981      69.5964    66.063643    347.99266   0.98875598 
  399020    832614.98    498.05438   -258.65493    181.12434    69.610436    66.037869    258.65493   0.98880576 
  399040    832638.28    496.90621    93.260996    181.12887    69.606839    66.041476   -93.260996   0.98885554 
  399060    833002.57    497.99664   -270.32797    181.13341    69.616632    66.059423    270.32797   0.98890532 
  399080    832226.63    496.37137    4.5626135    181.13794    69.600073    66.011939   -4.5626135   0.98895511 
  399100    831748.51    499.22535   -100.81383    181.14247    69.583885    65.987711    100.81383   0.98900489 
  399120    832205.66     498.6779   -687.24459    181.14701    69.558387    66.046529    687.24459   0.98905467 
  399140     832151.6    497.26154   -389.56956    181.15154    69.553517     66.04521    389.56956   0.98910445 
  399160    832429.98    499.36891   -437.77435    181.15608    69.573229    66.046933    437.77435   0.98915423 
  399180    832563.41     498.6392   -90.540085    181.16061    69.584279    66.045376    90.540085   0.98920401 
  399200    832397.22    498.08222    11.086411    181.16514    69.587216    66.027753   -11.086411   0.98925379 
  399220    833073.21    499.29501   -58.212308    181.16968    69.629361    66.039724    58.212308   0.98930357 
  399240    834914.02    500.21286   -431.89001    181.17421    69.711948    66.105585    431.89001   0.98935335 
  399260    836342.96    501.21207   -778.13848    181.17874    69.779859    66.152624    778.13848   0.98940314 
  399280    836154.35    499.80848    -232.6502    181.18328    69.775139    66.140524     232.6502   0.98945292 
  399300    836300.08    499.00656   -246.92623    181.18781     69.81308    66.114446    246.92623    0.9895027 
  399320    837216.88     501.9827    57.351109    181.19234    69.862216    66.138718   -57.351109   0.98955248 
  399340    838133.25    501.75713    24.473292    181.19688    69.950968    66.125448   -24.473292   0.98960226 
  399360    838748.79    501.78762   -302.93396    181.20141    69.991666    66.133879    302.93396   0.98965204 
  399380    839205.17    500.11641   -299.04091    181.20595    69.997185    66.162991    299.04091   0.98970182 
  399400    839076.24     499.2963   -346.05457    181.21048    69.924304     66.22012    346.05457    0.9897516 
  399420    838981.81    501.82398   -209.77906    181.21501    69.944572    66.191825    209.77906   0.98980139 
  399440     838601.6    501.55126   -59.380754    181.21955    69.925304    66.178403    59.380754   0.98985117 
  399460    839004.59    498.28015   -142.78728    181.22408    69.926189    66.207711    142.78728   0.98990095 
  399480    839405.45    498.54888   -247.84399    181.22861     69.89974     66.26275    247.84399   0.98995073 
  399500    839488.11    499.11134    -568.1568    181.23315    69.904347     66.26325     568.1568   0.99000051 
  399520    838882.79    499.97548   -765.37057    181.23768    69.855453    66.260159    765.37057   0.99005029 
  399540    837535.95    500.55273    -341.2814    181.24221    69.781747    66.221994     341.2814   0.99010007 
  399560    836844.24    500.48855   -83.239492    181.24675    69.736326    66.208744    83.239492   0.99014985 
  399580    836428.69     499.8219    194.32665    181.25128    69.749544    66.161671   -194.32665   0.99019963 
  399600    836663.73    500.50514   -388.89129    181.25582    69.768023    66.161078    388.89129   0.99024942 
  399620    836617.91    500.19863   -389.51791    181.26035    69.717108    66.204114    389.51791    0.9902992 
  399640    836242.74    499.02495   -283.41931    181.26488    69.708501    66.180942    283.41931   0.99034898 
  399660    835690.91    501.50155     95.09104    181.26942    69.710034    66.134161    -95.09104   0.99039876 
  399680    834955.93    499.50093    112.46851    181.27395     69.69335    66.090162   -112.46851   0.99044854 
  399700    834274.08    499.11929   -117.79058    181.27848    69.659948    66.066203    117.79058   0.99049832 
  399720    835046.51    500.21285   -429.45868    181.28302    69.691151    66.096111    429.45868    0.9905481 
  399740    835381.47    499.02614   -560.22312    181.28755    69.680596    66.130986    560.22312   0.99059788 
  399760    834234.26    500.78883   -185.19383    181.29208     69.64908    66.068401    185.19383   0.99064766 
  399780    833746.14    500.61022    111.55071    181.29662    69.609116       66.066   -111.55071   0.99069745 
  399800    834043.22    498.79291    132.81046    181.30115    69.633631    66.064622   -132.81046   0.99074723 
  399820    834389.87    498.27711   -111.86715    181.30569    69.630196    66.093688    111.86715   0.99079701 
  399840    834687.49    499.10303   -410.01757    181.31022    69.637559    66.108619    410.01757   0.99084679 
  399860    836174.19    498.43339   -897.72029    181.31475    69.712142     66.15386    897.72029   0.99089657 
  399880    835367.46     497.7254   -105.52125    181.31929    69.675786    66.122867    105.52125   0.99094635 
  399900    834204.57     498.9399    258.98408    181.32382     69.65093    66.052732   -258.98408   0.99099613 
  399920    833677.21    499.06567    341.60566    181.32835    69.648164    66.011946   -341.60566   0.99104591 
  399940    834321.68    498.58865   -467.49726    181.33289     69.68888    66.022728    467.49726   0.99109569 
  399960    833708.48    498.59842   -484.93123    181.33742    69.665882    65.994333    484.93123   0.99114548 
  399980    833477.74    497.30382   -355.27617    181.34196    69.655925    65.983849    355.27617   0.99119526 
  400000    833652.01    498.16706   -229.18902    181.34649    69.632167    66.018514    229.18902   0.99124504 
Loop time of 24976.7 on 64 procs for 400000 steps with 64040 atoms

Performance: 1.384 ns/day, 17.345 hours/ns, 16.015 timesteps/s
99.4% CPU use with 64 MPI tasks x 1 OpenMP threads

MPI task timing breakdown:
Section |  min time  |  avg time  |  max time  |%varavg| %total
---------------------------------------------------------------
Pair    | 5394.8     | 6812.9     | 8013       | 706.4 | 27.28
Bond    | 427.56     | 509.22     | 549.78     | 111.0 |  2.04
Kspace  | 2736.3     | 3975.1     | 5452       | 961.4 | 15.92
Neigh   | 12396      | 12553      | 12626      |  63.3 | 50.26
Comm    | 690.66     | 763.54     | 967.27     | 269.6 |  3.06
Output  | 8.9938     | 9.1969     | 9.8918     |   3.9 |  0.04
Modify  | 256.4      | 327.13     | 351.15     | 105.2 |  1.31
Other   |            | 26.44      |            |       |  0.11

Nlocal:        1000.62 ave        1174 max         571 min
Histogram: 1 2 1 3 3 4 5 17 22 6
Nghost:        13262.2 ave       14613 max       11782 min
Histogram: 7 8 7 3 5 2 3 12 13 4
Neighs:       675862.0 ave      818219 max      340019 min
Histogram: 1 3 3 4 1 4 8 5 28 7

Total # of neighbors = 43255153
Ave neighs/atom = 675.43962
Ave special neighs/atom = 5.8719550
Neighbor list builds = 400000
Dangerous builds not checked
Total wall time: 6:56:21
