LAMMPS (29 Oct 2020)
OMP_NUM_THREADS environment is not set. Defaulting to 1 thread. (../comm.cpp:94)
  using 1 OpenMP thread(s) per MPI task
####################################################
#    This program is free software: you can redistribute it and/or modify
#    it under the terms of the GNU General Public License as published by
#    the Free Software Foundation, either version 3 of the License, or
#    (at your option) any later version.
#
#    This program is distributed in the hope that it will be useful,
#    but WITHOUT ANY WARRANTY; without even the implied warranty of
#    MERCHANTABILITY or FITNESS FOR A PARTICULAR PURPOSE.  See the
#    GNU General Public License for more details.


units		real        ## defines the units style used herein. More information: https://docs.lammps.org/units.html
atom_style	full        ## defines the atom style used herein. More information: https://docs.lammps.org/atom_style.html

# Styles
pair_style      lj/cut/coul/long 15.0 10.0      ## sets the formula(s) LAMMPS uses to compute pairwise interactions; here, lennard-jones (LJ) with long-range Coulomb interaction. More: https://docs.lammps.org/pair_lj_cut_coul.html
pair_modify     shift no                        ## the shift keyword determines whether a Lennard-Jones potential is shifted at its cutoff to 0.0. More: https://docs.lammps.org/pair_modify.html
kspace_style    pppm 1.0e-4                     ## defines a long-range solver for LAMMPS to compute long-range Coulombic interactions. Note: requires use of a matching pair style, i.e. PPPM with coul/long. More: https://docs.lammps.org/kspace_style.html
bond_style      harmonic                        ## defined based off the forcefield used to construct the system; models the atoms' interactions
angle_style     harmonic
dihedral_style  opls
improper_style  cvff
special_bonds   lj 0 0 1 coul 0 0 1

read_data       500K_PS.lmps      ## input lammps datafile, equilibriated until structure nears experimental properties
Reading data file ...
  orthogonal box = (54.663378 54.663378 54.663378) to (145.33662 145.33662 145.33662)
  4 by 4 by 4 MPI processor grid
  reading atoms ...
  64040 atoms
  reading velocities ...
  64040 velocities
  scanning bonds ...
  2 = max bonds/atom
  scanning angles ...
  6 = max angles/atom
  scanning dihedrals ...
  12 = max dihedrals/atom
  scanning impropers ...
  3 = max impropers/atom
  reading bonds ...
  68020 bonds
  reading angles ...
  119880 angles
  reading dihedrals ...
  191660 dihedrals
  reading impropers ...
  51880 impropers
Finding 1-2 1-3 1-4 neighbors ...
  special bond factors lj:    0.0      0.0      1.0     
  special bond factors coul:  0.0      0.0      1.0     
     4 = max # of 1-2 neighbors
     8 = max # of 1-3 neighbors
    12 = max # of special neighbors
  special bonds CPU = 1.470 seconds
  read_data CPU = 3.384 seconds

dielectric      1.0
neighbor    	1.0 bin
neigh_modify	delay 0 every 1 check no        ## this is to make sure that the neighbor list is updated every timestep, and the atoms don't get lost as the system is being deformed ##

timestep	    1.0                             ## unit = fs, per "real" unit style
run_style       verlet                          ## defines algorithm used for simulation computation; verlet integration is a numerical method used to integrate Newton's equations of motion.

variable stress equal press*-1                         ## computes stress as the negative of press values
variable engStrain equal (lx-91.07191)/91.07191      ## computes engineering strain; lx_0 must be found and inputted manually (for now)

thermo		    20                                                               ## output log data (headers in thermo_style), recorded at every timestep in numList.txt
thermo_style    custom step vol temp press lx ly lz v_stress v_engStrain         ## data headers of output log file. More: https://docs.lammps.org/thermo_style.html

################# Deformation ##################

fix 1 all npt temp 500 500 100 y 1 1 100.0 z 1 1 100.0      ## stress normal to the x direction can vary; external pressure (y and z) = 1atm ##

fix 2 all deform 1 x scale 2.0 remap x                      ## sets a uniaxial (x-direction) deformation in motion, scaling a set amount (here, 4.0x) the initial length


################# Dumping ##################

reset_timestep 0

dump dump2 all custom 2000 sim.lammpstrj id mol type q xs ys zs ix iy iz

restart 4000 PS.restart

run 		40000              ## this depends on the overall strain rate, where strain rate = deformScale / runTimeSteps (consider units!)
PPPM initialization ...
WARNING: System is not charge neutral, net charge = -8.9366436e-05 (../kspace.cpp:313)
  using 12-bit tables for long-range coulomb (../kspace.cpp:328)
  G vector (1/distance) = 0.20255614
  grid = 24 24 24
  stencil order = 5
  estimated absolute RMS force accuracy = 0.024281815
  estimated relative force accuracy = 7.3123966e-05
  using double precision FFTW3
  3d grid and FFT values/proc = 1331 216
Neighbor list info ...
  update every 1 steps, delay 0 steps, check no
  max neighbors/atom: 2000, page size: 100000
  master list distance cutoff = 16
  ghost atom cutoff = 16
  binsize = 8, bins = 12 12 12
  1 neighbor lists, perpetual/occasional/extra = 1 0 0
  (1) pair lj/cut/coul/long, perpetual
      attributes: half, newton on
      pair build: half/bin/newton
      stencil: half/bin/3d/newton
      bin: standard
Per MPI rank memory allocation (min/avg/max) = 18.05 | 18.46 | 18.84 Mbytes
Step Volume Temp Press Lx Ly Lz v_stress v_engStrain 
       0    745482.52    500.15548    12456.345    90.673244    90.673244    90.673244   -12456.345 -0.0043774811 
      20    749571.77      510.554    606.82732    90.718581    90.893648    90.904094   -606.82732 -0.0038796699 
      40    753343.49    507.08601   -2469.0731    90.763918    91.118742    91.090291    2469.0731 -0.0033818586 
      60    751471.19    508.48314   -979.11999    90.809254    91.008869    90.928182    979.11999 -0.0028840473 
      80    748931.94    502.88518   -910.50208    90.854591    90.838686    90.745403    910.50208 -0.0023862361 
     100    748155.26    503.39433   -379.61777    90.899928    90.774068    90.670581    379.61777 -0.0018884248 
     120    744948.81    503.95025    59.207332    90.945264    90.571093    90.439204   -59.207332 -0.0013906136 
     140    745859.83    504.81737   -207.35296    90.990601    90.587808    90.487989    207.35296 -0.0008928023 
     160    746786.81    504.39519    512.15212    91.035937    90.685666    90.457612   -512.15212 -0.00039499104 
     180    748223.64    503.40104    -342.3709    91.081274    90.722871    90.549393     342.3709 0.00010282022 
     200    747516.79    500.89707   -17.681663    91.126611    90.670455    90.471115    17.681663 0.00060063148 
     220    747821.47    502.48331   -942.08973    91.171947    90.669421    90.464015    942.08973 0.0010984427 
     240    747917.73    501.19417   -219.24437    91.217284    90.637482    90.462558    219.24437  0.001596254 
     260    747805.22    501.57944    156.66022    91.262621    90.569254     90.47212   -156.66022 0.0020940653 
     280    748218.47    502.05958    256.58325    91.307957     90.62315     90.42336   -256.58325 0.0025918765 
     300    748473.94    500.33838   -179.71448    91.353294    90.627945    90.404561    179.71448 0.0030896878 
     320    748084.83    498.74494    -333.2089     91.39863    90.600026    90.340573     333.2089  0.003587499 
     340    748147.27    500.51923   -120.66484    91.443967    90.578546    90.324735    120.66484 0.0040853103 
     360    748181.52     499.6885   -577.56594    91.489304    90.627746    90.235094    577.56594 0.0045831216 
     380    748920.32    499.62806   -290.20584     91.53464    90.681386    90.226058    290.20584 0.0050809328 
     400    749368.98    498.63725   -485.13532    91.579977    90.721563    90.195455    485.13532 0.0055787441 
     420    749074.56    496.80944   -317.77235    91.625314    90.675509    90.161177    317.77235 0.0060765553 
     440    748298.99    497.68003    538.35464     91.67065    90.650265    90.048352   -538.35464 0.0065743666 
     460    748237.05    500.66599   -199.72485    91.715987    90.660489     89.98624    199.72485 0.0070721779 
     480    748998.96    498.56401   -343.03889    91.761323    90.698365    89.995769    343.03889 0.0075699891 
     500     749025.6    499.95726   -534.09762     91.80666    90.694864    89.957997    534.09762 0.0080678004 
     520    748486.67     497.8844    125.59689    91.851997    90.638046    89.905225   -125.59689 0.0085656116 
     540    748899.49    499.93807    121.01508    91.897333    90.674758    89.874031   -121.01508 0.0090634229 
     560    749806.29    500.21654    -480.7421     91.94267    90.659845    89.953278     480.7421 0.0095612341 
     580     750378.2    501.25405   -139.90791    91.988006    90.648977     89.98831    139.90791  0.010059045 
     600    749731.16     498.1297    64.611809    92.033343    90.603561    89.911469   -64.611809  0.010556857 
     620    750568.49    497.78943    7.0840227     92.07868    90.608204    89.962958   -7.0840227  0.011054668 
     640    750709.56    501.25251   -246.63453    92.124016    90.616748    89.927105    246.63453  0.011552479 
     660    750269.18    498.05882   -597.18722    92.169353    90.551544    89.894829    597.18722   0.01205029 
     680    749848.08    499.50329   -121.28328     92.21469    90.492246    89.859047    121.28328  0.012548102 
     700    750164.15    500.16424   -496.75485    92.260026    90.495806    89.849214    496.75485  0.013045913 
     720    750078.93    500.24692   -73.411929    92.305363    90.499281    89.791433    73.411929  0.013543724 
     740    749519.88    502.24154   -81.608395    92.350699    90.446361    89.732934    81.608395  0.014041535 
     760    749254.69    501.99558   -124.06968    92.396036    90.402654    89.700517    124.06968  0.014539347 
     780    748700.56    499.74775   -498.38898    92.441373    90.331228    89.661058    498.38898  0.015037158 
     800     748808.7    501.71722   -418.49296    92.486709    90.313157    89.647984    418.49296  0.015534969 
     820    750123.04    502.21811   -522.55831    92.532046    90.407329    89.667839    522.55831  0.016032781 
     840    750197.72    500.25313   -764.03213    92.577383    90.339844    89.699807    764.03213  0.016530592 
     860    749903.37    500.54962   -121.51519    92.622719    90.314436    89.645936    121.51519  0.017028403 
     880    749122.09    500.60015    -16.56027    92.668056    90.170604    89.651503     16.56027  0.017526214 
     900    749302.94    504.11471    73.613783    92.713392    90.128973    89.670696   -73.613783  0.018024026 
     920    750173.34    499.88133    -32.94136    92.758729    90.163142    89.696976     32.94136  0.018521837 
     940    751546.04    497.44574   -626.65233    92.804066    90.233572    89.747103    626.65233  0.019019648 
     960    752318.51    496.89338    -428.6543    92.849402    90.281008    89.748301     428.6543  0.019517459 
     980    752060.65    498.47166   -743.05515    92.894739    90.214825    89.739539    743.05515  0.020015271 
    1000    752571.44    499.29163   -269.20744    92.940076    90.248288    89.723403    269.20744  0.020513082 
    1020    753610.59    499.04478    189.22551    92.985412    90.288076    89.763913   -189.22551  0.021010893 
    1040    754341.73    498.19044   -203.76418    93.030749    90.274121    89.821095    203.76418  0.021508704 
    1060    754442.04    498.24136   -167.83409    93.076085    90.240348    89.822887    167.83409  0.022006516 
    1080    754294.75    500.03897   -348.71556    93.121422    90.239382    89.762589    348.71556  0.022504327 
    1100    755254.07    498.02384   -786.67306    93.166759    90.254842    89.817627    786.67306  0.023002138 
    1120    755333.41    501.99428   -386.70814    93.212095    90.132108    89.905632    386.70814  0.023499949 
    1140    754956.32    500.60598   -11.107558    93.257432    90.042589    89.906357    11.107558  0.023997761 
    1160    755001.71    502.19036    257.98943    93.302769    90.034585    89.876063   -257.98943  0.024495572 
    1180    754890.41    501.95457   -542.36323    93.348105    90.053286    89.800516    542.36323  0.024993383 
    1200    754999.49     498.4419   -310.13383    93.393442    90.015365    89.807712    310.13383  0.025491194 
    1220    754581.84    499.38293   -255.76278    93.438778    90.021028    89.708837    255.76278  0.025989006 
    1240    754742.73     500.7248    117.20311    93.484115    89.962478     89.74282   -117.20311  0.026486817 
    1260    754848.53    501.08724    144.95861    93.529452    89.943417    89.730905   -144.95861  0.026984628 
    1280    754884.57    500.69358    4.8234645    93.574788    89.941966    89.693158   -4.8234645  0.027482439 
    1300    755686.38    501.33644   -720.32672    93.620125    90.025637    89.661536    720.32672  0.027980251 
    1320    755856.98    499.90394   -1093.4775    93.665462    90.030526    89.633502    1093.4775  0.028478062 
    1340    756610.46    501.85534   -261.60664    93.710798     90.00945    89.700445    261.60664  0.028975873 
    1360    756734.99    503.61285   -689.12662    93.756135    89.966402    89.714732    689.12662  0.029473685 
    1380    756905.87    502.09658   -376.25619    93.801471    90.002812    89.655336    376.25619  0.029971496 
    1400    756864.72      503.152   -174.67804    93.846808    89.980715    89.629158    174.67804  0.030469307 
    1420    756298.38     506.0651    245.17293    93.892145    89.977416    89.522128   -245.17293  0.030967118 
    1440    756550.65    505.29245    212.92351    93.937481    89.955779    89.530298   -212.92351   0.03146493 
    1460    756709.82    505.81859    -370.5598    93.982818    89.937633    89.523994     370.5598  0.031962741 
    1480    757204.49    502.70447   -598.74669    94.028154    89.938667    89.538295    598.74669  0.032460552 
    1500    757312.13    500.95526   -421.20222    94.073491    90.009892    89.437039    421.20222  0.032958363 
    1520    756615.69    500.79728   -494.97523    94.118828    89.955034    89.366214    494.97523  0.033456175 
    1540     756751.7    502.99677    67.175448    94.164164    89.897588    89.396334   -67.175448  0.033953986 
    1560     757456.4    500.52046   -807.94358    94.209501    89.871831    89.462153    807.94358  0.034451797 
    1580    757727.99    502.25487    -733.1337    94.254838    89.896451    89.426686     733.1337  0.034949608 
    1600     757685.7    502.28731   -429.91101    94.300174    89.920545    89.354754    429.91101   0.03544742 
    1620    757479.65    499.81838   -157.75114    94.345511    89.904376    89.303586    157.75114  0.035945231 
    1640    758041.11    501.32619   -72.385688    94.390847    89.947864    89.283667    72.385688  0.036443042 
    1660    758603.38    498.37489   -236.73322    94.436184    89.924765    89.329938    236.73322  0.036940853 
    1680    759315.64    502.43018   -556.06245    94.481521    89.931724     89.36399    556.06245  0.037438665 
    1700     759213.7     501.2668   -516.61404    94.526857    89.885077    89.355487    516.61404  0.037936476 
    1720    759587.11    500.21284   -383.73774    94.572194    89.886645    89.355019    383.73774  0.038434287 
    1740    759685.32    499.74446   -150.68131    94.617531    89.837627    89.372489    150.68131  0.038932098 
    1760    759690.76    498.66916    -623.3209    94.662867    89.849557    89.318465     623.3209   0.03942991 
    1780    760187.06    500.66063   -119.26429    94.708204    89.885276    89.298531    119.26429  0.039927721 
    1800    759961.38    499.33233   -499.51899     94.75354    89.806094    89.307981    499.51899  0.040425532 
    1820    759508.42    499.09494   -270.91193    94.798877    89.756702    89.261158    270.91193  0.040923343 
    1840    759870.98    498.85264   0.54951522    94.844214    89.803149    89.214912  -0.54951522  0.041421155 
    1860    761155.31    499.97152   -655.55413     94.88955    89.893385    89.233343    655.55413  0.041918966 
    1880    762149.04    500.63161   -683.34882    94.934887    89.935196    89.265653    683.34882  0.042416777 
    1900    761250.96    497.91167   -505.31425    94.980224    89.826961    89.225289    505.31425  0.042914589 
    1920    760768.03    500.27391   -199.05506     95.02556    89.763496    89.189156    199.05506    0.0434124 
    1940    761309.08    498.29741   -366.86774    95.070897     89.70155    89.271631    366.86774  0.043910211 
    1960    761738.55    500.80286   -782.27997    95.116233    89.690025    89.290888    782.27997  0.044408022 
    1980     761742.4    497.59638     88.24106     95.16157    89.666016    89.272698    -88.24106  0.044905834 
    2000    761674.06    497.72066   -139.49275    95.206907    89.615886    89.272091    139.49275  0.045403645 
    2020    761554.68    498.63833   -501.19232    95.252243    89.638007    89.193599    501.19232  0.045901456 
    2040    760575.91    502.45594   -657.84929     95.29758    89.593682    89.080636    657.84929  0.046399267 
    2060    760935.91    501.90999   -325.13759    95.342917    89.659159    89.015367    325.13759  0.046897079 
    2080    761524.56    501.74563   -265.06098    95.388253    89.624934     89.07589    265.06098   0.04739489 
    2100    761501.21    501.02654   -321.66372     95.43359    89.617943    89.037789    321.66372  0.047892701 
    2120     761885.2    502.47444   -192.06066    95.478926    89.590825    89.067338    192.06066  0.048390512 
    2140    762658.07    503.90132   -290.32467    95.524263    89.672376     89.03433    290.32467  0.048888324 
    2160    763718.62    500.23625   -795.89637      95.5696    89.692166    89.096183    795.89637  0.049386135 
    2180    763398.75     501.5272   -133.51284    95.614936    89.668199    89.040432    133.51284  0.049883946 
    2200    763407.81    503.47073   -574.60893    95.660273    89.648557    89.018788    574.60893  0.050381757 
    2220    763770.17    502.86371   -263.79938    95.705609    89.652194    89.015242    263.79938  0.050879569 
    2240    764099.74    501.65677   -358.59856    95.750946    89.636672    89.026901    358.59856   0.05137738 
    2260    763632.09    502.15089   -320.85233    95.796283    89.554081    89.012322    320.85233  0.051875191 
    2280    763039.69    501.15749   -96.614845    95.841619    89.558707    88.896604    96.614845  0.052373002 
    2300    763994.57    502.09423   -662.33082    95.886956     89.58808    88.936597    662.33082  0.052870814 
    2320    765322.88    498.33432   -864.88819    95.932293    89.654045    88.983603    864.88819  0.053368625 
    2340    764649.52     497.6214   -75.804951    95.977629    89.568091    88.948593    75.804951  0.053866436 
    2360     764562.8    499.31861   -430.62607    96.022966    89.595457    88.869361    430.62607  0.054364247 
    2380     763958.4    498.65891   -236.57553    96.068302    89.576205    88.776278    236.57553  0.054862059 
    2400    764060.56     500.0934    -983.2705    96.113639    89.580789    88.741727     983.2705   0.05535987 
    2420    764764.31    499.91757   -424.52851    96.158976    89.587099    88.775333    424.52851  0.055857681 
    2440    765557.19    498.19218   -517.64887    96.204312    89.576117    88.836383    517.64887  0.056355493 
    2460    765224.46    501.27749   -265.10114    96.249649    89.477535    88.853733    265.10114  0.056853304 
    2480    764348.55    500.15554    100.68347    96.294986    89.366812    88.820151   -100.68347  0.057351115 
    2500    764383.84    503.08949   -96.061189    96.340322    89.354295    88.794889    96.061189  0.057848926 
    2520    765207.22    500.79678   -38.610445    96.385659    89.363345    88.839728    38.610445  0.058346738 
    2540    765387.27    500.84566   -439.80678    96.430995    89.325967     88.85602    439.80678  0.058844549 
    2560    764511.91    496.84183   -934.65914    96.476332    89.249133    88.789061    934.65914   0.05934236 
    2580    763896.13    500.60342     -444.296    96.521669    89.191772    88.732903      444.296  0.059840171 
    2600    764622.93    499.17781   -597.89707    96.567005     89.24837    88.719331    597.89707  0.060337983 
    2620    765401.49     498.9582   -519.56332    96.612342    89.299947    88.716723    519.56332  0.060835794 
    2640    765339.73    498.40349   -227.62621    96.657679    89.357058    88.611286    227.62621  0.061333605 
    2660    765710.42    501.58543   -359.34606    96.703015    89.400491    88.569591    359.34606  0.061831416 
    2680    766418.23    499.89171   -482.23062    96.748352    89.433417    88.577297    482.23062  0.062329228 
    2700    766574.75    499.54867    -900.2646    96.793688    89.408862     88.57821     900.2646  0.062827039 
    2720    766744.83    501.24306   -436.09276    96.839025    89.385374    88.579656    436.09276   0.06332485 
    2740    767565.75    500.69038   -136.30571    96.884362    89.428199    88.590555    136.30571  0.063822661 
    2760    767598.49    499.92241   -13.897907    96.929698     89.34009    88.640227    13.897907  0.064320473 
    2780    767674.18    501.16768   -5.5070575    96.975035     89.30196    88.645358    5.5070575  0.064818284 
    2800    768655.91    498.02579   -1059.2497    97.020372    89.293297    88.725852    1059.2497  0.065316095 
    2820    768472.61    499.78597   -551.19714    97.065708    89.201557    88.754449    551.19714  0.065813906 
    2840    768053.13    498.69668    241.47315    97.111045     89.13628     88.72952   -241.47315  0.066311718 
    2860    769404.95    501.03566   -390.15874    97.156381    89.202741    88.778018    390.15874  0.066809529 
    2880    769407.31    498.92677   -618.16898    97.201718    89.155024    88.784377    618.16898   0.06730734 
    2900    768200.19    500.19549   -348.02602    97.247055    89.061697    88.696603    348.02602  0.067805152 
    2920    768073.87    499.69582   -255.72342    97.292391    89.092438    88.610108    255.72342  0.068302963 
    2940    768636.66    498.84262   -735.52372    97.337728    89.149902    88.576603    735.52372  0.068800774 
    2960    768654.38     498.2591   -123.28744    97.383065    89.158554    88.528816    123.28744  0.069298585 
    2980    768895.95    499.66114   -455.66697    97.428401    89.174469    88.499632    455.66697  0.069796397 
    3000    769803.25    499.60714   -653.45033    97.473738    89.178775    88.558575    653.45033  0.070294208 
    3020    770158.78    498.82448   -428.44517    97.519074    89.149701    88.587166    428.44517  0.070792019 
    3040    769844.35    497.88437   -220.14951    97.564411    89.109373    88.549907    220.14951   0.07128983 
    3060    770545.68    500.48026    -276.5873    97.609748    89.153587    88.545476     276.5873  0.071787642 
    3080    772343.62    500.56113   -645.97695    97.655084    89.185445     88.67919    645.97695  0.072285453 
    3100    772691.91    500.51667   -542.59971    97.700421    89.164979    88.698366    542.59971  0.072783264 
    3120    772507.76    500.03325   -117.55214    97.745757    89.041841    88.758673    117.55214  0.073281075 
    3140    773387.34    501.10631   -502.30141    97.791094     89.08531    88.775201    502.30141  0.073778887 
    3160    773532.67    501.06519   -461.68227    97.836431    89.030518    88.805356    461.68227  0.074276698 
    3180    773784.12    503.98172   -494.35023    97.881767    89.067339     88.75637    494.35023  0.074774509 
    3200    774695.51    500.23139   -770.21947    97.927104    89.142358    88.745023    770.21947   0.07527232 
    3220    774463.45    503.23412   -480.85491    97.972441    89.110649    88.708941    480.85491  0.075770132 
    3240     773559.2    504.09001   -260.84446    98.017777    89.004665    88.669842    260.84446  0.076267943 
    3260    773851.26    501.45341   -743.05009    98.063114    88.935864      88.7309    743.05009  0.076765754 
    3280    774434.79    501.94592   -397.08476     98.10845    88.960089    88.732605    397.08476  0.077263565 
    3300    774733.15    500.67073   -67.280851    98.153787     88.94139    88.744443    67.280851  0.077761377 
    3320    775680.96    501.87561   -272.69548    98.199124    89.004435    88.749081    272.69548  0.078259188 
    3340    775903.71    500.82451   -429.29227     98.24446    88.919087    88.818771    429.29227  0.078756999 
    3360    774922.02    501.39452   -232.12925    98.289797    88.841887    88.742527    232.12925   0.07925481 
    3380    774349.01    499.67035   -388.36197    98.335134    88.805096    88.672744    388.36197  0.079752622 
    3400    775073.26      499.445   -271.10637     98.38047    88.871119    88.648872    271.10637  0.080250433 
    3420    775517.11    500.75966   -287.65214    98.425807    88.866539     88.66335    287.65214  0.080748244 
    3440    774452.97     498.3452    -386.5843    98.471143    88.811437    88.555832     386.5843  0.081246056 
    3460    774221.26    500.68523   -560.04745     98.51648    88.800005    88.499988    560.04745  0.081743867 
    3480    774472.71    500.11369   -577.65196    98.561817    88.781853    88.506103    577.65196  0.082241678 
    3500    774411.63    501.69076   -328.56557    98.607153    88.732829    88.507305    328.56557  0.082739489 
    3520    774276.38    500.51435   -351.57203     98.65249    88.732544    88.451463    351.57203  0.083237301 
    3540    774316.24    499.93411   -415.74724    98.697827      88.7459     88.40208    415.74724  0.083735112 
    3560    774934.94     500.5736   -73.771066    98.743163    88.749063    88.428943    73.771066  0.084232923 
    3580    775189.73    501.36749   -522.61343      98.7885    88.683582    88.482706    522.61343  0.084730734 
    3600    774485.32    501.65392   -415.36938    98.833836    88.622442     88.42271    415.36938  0.085228546 
    3620    774457.54    501.02494   -112.64915    98.879173     88.58259    88.418759    112.64915  0.085726357 
    3640     774658.2    500.07281   -637.53607     98.92451    88.527168    88.456479    637.53607  0.086224168 
    3660    775003.84    500.45304   -911.72902    98.969846    88.480283     88.50228    911.72902  0.086721979 
    3680     775587.2    500.36554   -875.57396    99.015183     88.45834    88.550304    875.57396  0.087219791 
    3700    775321.71    500.28971   -169.91517     99.06052    88.421911    88.515931    169.91517  0.087717602 
    3720    775509.57    500.43536   0.73620161    99.105856    88.404703    88.514103  -0.73620161  0.088215413 
    3740    775844.94    499.64732   -366.64943    99.151193     88.42993     88.48664    366.64943  0.088713224 
    3760    776571.14    497.75657   -833.77444    99.196529    88.435696    88.523214    833.77444  0.089211036 
    3780    776364.97    496.38704   -715.45316    99.241866    88.432773    88.462206    715.45316  0.089708847 
    3800    776240.43    501.37918   -315.32732    99.287203    88.508699    88.331789    315.32732  0.090206658 
    3820    776986.38    496.85159    94.700141    99.332539     88.58874    88.296471   -94.700141  0.090704469 
    3840    777802.88    496.41008   -537.87832    99.377876    88.638565    88.299272    537.87832  0.091202281 
    3860     778068.3    497.97498   -913.84244    99.423213    88.549334    88.378093    913.84244  0.091700092 
    3880    778346.57    498.73666   -1357.5696    99.468549    88.516295    88.402389    1357.5696  0.092197903 
    3900    778574.39    496.09007   -676.79286    99.513886     88.53617    88.368137    676.79286  0.092695714 
    3920    777930.64    497.01258    135.79397    99.559222    88.564723     88.22641   -135.79397  0.093193526 
    3940    777751.15    499.48311    170.95501    99.604559    88.487949    88.242401   -170.95501  0.093691337 
    3960     779093.5    499.38512   -373.01984    99.649896    88.570598    88.272038    373.01984  0.094189148 
    3980    779151.77    500.60597   -640.90359    99.695232    88.558091    88.250958    640.90359   0.09468696 
    4000    778747.92    497.76545   -86.120994    99.740569    88.568579    88.154682    86.120994  0.095184771 
    4020    779541.35    498.88635    -203.1368    99.785905    88.604653    88.168495     203.1368  0.095682582 
    4040    780436.79    501.97367   -798.82353    99.831242    88.592329    88.241959    798.82353  0.096180393 
    4060    780848.17    501.71985   -403.61127    99.876579    88.555194    88.285403    403.61127  0.096678205 
    4080    780736.77    498.30789   -487.85541    99.921915    88.523402    88.264443    487.85541  0.097176016 
    4100    781191.42    498.92182   -892.20931    99.967252     88.53379    88.265433    892.20931  0.097673827 
    4120    780846.49    497.66844    188.07531    100.01259    88.450624    88.269384   -188.07531  0.098171638 
    4140     780957.5    500.47715   -412.25189    100.05793    88.460352    88.232227    412.25189   0.09866945 
    4160    782044.07    496.98346   -870.38848    100.10326    88.446667    88.328637    870.38848  0.099167261 
    4180    782736.08    498.46388   -788.02613     100.1486    88.440009    88.373427    788.02613  0.099665072 
    4200    783475.24    502.11483   -673.66516    100.19394    88.529174    88.327803    673.66516   0.10016288 
    4220    783632.49    499.84209   -40.801611    100.23927    88.491107    88.343562    40.801611   0.10066069 
    4240     783601.4    499.68097    67.271131    100.28461    88.389454    88.401671   -67.271131   0.10115851 
    4260    783919.19    501.11913   -36.222068    100.32994    88.312953    88.474133    36.222068   0.10165632 
    4280    784653.35    501.11365   -647.92423    100.37528    88.359852    88.470011    647.92423   0.10215413 
    4300    785099.18    500.50484   -955.86899    100.42062    88.373834    88.466315    955.86899   0.10265194 
    4320    784391.96    501.80214   -232.36567    100.46595    88.344197    88.376376    232.36567   0.10314975 
    4340    784260.68    501.51776   -119.71001    100.51129    88.264719    88.401258    119.71001   0.10364756 
    4360    785203.23    502.08595   -809.08888    100.55663    88.267662    88.464648    809.08888   0.10414537 
    4380    785671.07    501.37041   -701.81815    100.60196    88.296032    88.449037    701.81815   0.10464318 
    4400    786044.84    499.05008   -613.68686     100.6473    88.317798    88.429457    613.68686     0.105141 
    4420    785304.13     500.6754   -499.82907    100.69264    88.343871    88.280287    499.82907   0.10563881 
    4440    785402.68    500.79424   -485.77954    100.73797    88.363764    88.231762    485.77954   0.10613662 
    4460     785039.9    500.07995   -391.16582    100.78331    88.349721    88.165347    391.16582   0.10663443 
    4480    785425.41    499.89224   -24.565581    100.82865    88.332849    88.185822    24.565581   0.10713224 
    4500    786115.68    501.11165   -141.89819    100.87398    88.391927    88.164689    141.89819   0.10763005 
    4520    786552.48    499.80353   -834.07187    100.91932    88.390544    88.175429    834.07187   0.10812786 
    4540    786135.31    498.58206   -781.76677    100.96466    88.359838    88.119701    781.76677   0.10862567 
    4560    786085.01    498.78947   -471.34687    101.00999    88.349045    88.085274    471.34687   0.10912349 
    4580     787158.7    498.40318   -476.82029    101.05533    88.369807    88.145301    476.82029    0.1096213 
    4600    787419.51    498.04589   -910.74406    101.10067     88.37115    88.133627    910.74406   0.11011911 
    4620    786633.26    496.64572   -551.14464      101.146    88.291237    88.085814    551.14464   0.11061692 
    4640    786355.03    500.41702   -146.48272    101.19134     88.23172    88.074579    146.48272   0.11111473 
    4660    786149.05    499.50662   -292.66941    101.23668    88.201884    88.041847    292.66941   0.11161254 
    4680    786220.91    498.82565    21.286666    101.28201    88.174735     88.03758   -21.286666   0.11211035 
    4700    786615.86    499.25148   -490.08269    101.32735    88.148018    88.069081    490.08269   0.11260816 
    4720    786983.88    497.64048   -1538.8533    101.37269    88.173235     88.04569    1538.8533   0.11310598 
    4740    786738.44    501.31155   -939.65912    101.41802     88.16329    87.988809    939.65912   0.11360379 
    4760    786046.98    502.85359    35.172312    101.46336    88.038751    87.996498   -35.172312    0.1141016 
    4780    786842.66    498.95769    118.52391     101.5087    88.100792    87.984229   -118.52391   0.11459941 
    4800    787916.62    501.63928   -727.09706    101.55403    88.205918    87.960028    727.09706   0.11509722 
    4820    788223.26    501.22327   -600.40867    101.59937    88.252629     87.90844    600.40867   0.11559503 
    4840    788273.33    501.60538   -454.33612    101.64471    88.236713    87.890664    454.33612   0.11609284 
    4860    788320.53    501.35515   -602.82343    101.69004    88.184894    87.908366    602.82343   0.11659065 
    4880    788227.77    502.09037   -358.23324    101.73538    88.139563    87.904038    358.23324   0.11708847 
    4900    788331.02     501.3509   -223.74302    101.78072    88.083172     87.93265    223.74302   0.11758628 
    4920    788826.38    502.12796   -243.74893    101.82605    88.082741    87.949159    243.74893   0.11808409 
    4940    788778.14    502.49551   -570.01938    101.87139    88.011772    87.975526    570.01938    0.1185819 
    4960    788195.16    504.79241    -283.9043    101.91673    87.931251    87.951862     283.9043   0.11907971 
    4980    788299.98    501.15236   -671.85212    101.96206    87.914394    87.941306    671.85212   0.11957752 
    5000    789567.18    500.02403   -656.33091     102.0074    87.944981    88.012904    656.33091   0.12007533 
    5020    789514.16    501.41678   -54.766945    102.05274    87.904775    88.008132    54.766945   0.12057315 
    5040    789697.56    500.30679     35.21911    102.09807    87.955655    87.938587    -35.21911   0.12107096 
    5060    790169.19    500.77547   -584.50592    102.14341    87.993383    87.914341    584.50592   0.12156877 
    5080    789663.26    499.04928   -792.01015    102.18875    87.912014    87.900356    792.01015   0.12206658 
    5100    789271.02    501.05811    -453.4476    102.23408    87.788481    87.941307     453.4476   0.12256439 
    5120    789446.63    498.31451   -712.51678    102.27942    87.729178    87.981317    712.51678    0.1230622 
    5140     788855.5    502.74989   -644.27577    102.32476    87.717652    87.888032    644.27577   0.12356001 
    5160    787962.89    500.63529   -519.04685    102.37009    87.614818    87.852698    519.04685   0.12405782 
    5180    787081.72    498.27786   -427.00655    102.41543    87.493811     87.83692    427.00655   0.12455564 
    5200    788389.69    501.35311    -331.4832    102.46077    87.489391    87.948399     331.4832   0.12505345 
    5220    788667.48    500.89809    15.170065     102.5061    87.469305    87.960671   -15.170065   0.12555126 
    5240     788653.8    499.88593   -354.60375    102.55144     87.48502    87.904467    354.60375   0.12604907 
    5260    789541.97    500.40324   -803.87869    102.59678     87.56489    87.884341    803.87869   0.12654688 
    5280    790112.83    498.45269   -633.83147    102.64211    87.589796     87.88404    633.83147   0.12704469 
    5300    790321.01    499.75571   -244.47061    102.68745    87.616701    87.841403    244.47061    0.1275425 
    5320    790150.69    498.40049   -536.95893    102.73279    87.656423    87.743936    536.95893   0.12804031 
    5340     790324.2    500.12242   -882.19105    102.77812    87.684032    87.696869    882.19105   0.12853813 
    5360    790458.41    499.54419   -874.19076    102.82346    87.705725    87.651403    874.19076   0.12903594 
    5380    790717.92    500.27239   -357.44864     102.8688     87.72247    87.624807    357.44864   0.12953375 
    5400    790911.38    498.92402    209.28241    102.91413    87.751906    87.578247   -209.28241   0.13003156 
    5420    791638.61     499.0814   -232.89127    102.95947    87.757666    87.614424    232.89127   0.13052937 
    5440    792554.14    500.41118   -853.09017    103.00481    87.813295    87.621599    853.09017   0.13102718 
    5460    792453.53    500.63766   -442.23885    103.05014    87.809631    87.575586    442.23885   0.13152499 
    5480    792917.72     501.9165    131.65975    103.09548     87.83065     87.56739   -131.65975    0.1320228 
    5500    794126.55    499.54956   -282.44923    103.14082    87.860273    87.632784    282.44923   0.13252062 
    5520    794306.68    499.43143   -463.39002    103.18615     87.88629    87.588213    463.39002   0.13301843 
    5540    794874.99    500.71571   -648.05291    103.23149    87.970655    87.528365    648.05291   0.13351624 
    5560    795910.24    499.57157   -1232.1377    103.27683    87.986765    87.587849    1232.1377   0.13401405 
    5580    795547.85    501.13727   -886.76747    103.32216    87.887794    87.608099    886.76747   0.13451186 
    5600    795126.04     500.6438    81.167389     103.3675     87.87512    87.535867   -81.167389   0.13500967 
    5620    795716.62    501.76711     636.2441    103.41284    87.902689    87.535017    -636.2441   0.13550748 
    5640    796954.69    499.77364    -783.4068    103.45817    87.885089    87.650346     783.4068   0.13600529 
    5660    797084.32    503.97898   -403.90722    103.50351    87.853175    87.658036    403.90722   0.13650311 
    5680    797508.67    501.64076   -422.81732    103.54885    87.844169    87.675291    422.81732   0.13700092 
    5700    798632.68    503.19897   -679.65056    103.59418    87.846554    87.758054    679.65056   0.13749873 
    5720    799224.02    501.30931   -759.04722    103.63952    87.884595    87.746618    759.04722   0.13799654 
    5740    798277.94    502.82788   -324.65162    103.68486      87.8648    87.624161    324.65162   0.13849435 
    5760    798790.87    502.95825   -151.40722    103.73019    87.918188    87.588923    151.40722   0.13899216 
    5780    799738.36    500.38959   -849.69042    103.77553    87.910404    87.662268    849.69042   0.13948997 
    5800    799958.59    503.38286    -701.5652    103.82086    87.862035    87.696368     701.5652   0.13998778 
    5820    799789.23    500.71321   -36.954693     103.8662    87.830587    87.670911    36.954693    0.1404856 
    5840    800067.93    501.90245   -196.57146    103.91154    87.801194    87.692544    196.57146   0.14098341 
    5860    799694.45    499.88616   -34.884549    103.95687    87.691441    87.723037    34.884549   0.14148122 
    5880    799904.49    498.95664   -395.43733    104.00221     87.67962    87.719653    395.43733   0.14197903 
    5900    800403.69    499.68831   -1036.6772    104.04755    87.684654    87.731112    1036.6772   0.14247684 
    5920     800327.7    497.92037   -922.34772    104.09288    87.648046    87.721201    922.34772   0.14297465 
    5940    799799.37    500.26656   -211.21387    104.13822    87.570917    87.702304    211.21387   0.14347246 
    5960    800438.55    500.37906   -118.18057    104.18356    87.619135    87.685917    118.18057   0.14397027 
    5980    800273.83    500.32671   -446.12518    104.22889    87.684747    87.564169    446.12518   0.14446809 
    6000    800340.92    500.76508   -487.27715    104.27423    87.677812     87.54036    487.27715    0.1449659 
    6020    800235.04    497.85334   -265.26317    104.31957    87.650896    87.517605    265.26317   0.14546371 
    6040     800402.9    499.08048   -706.87718     104.3649    87.671904    87.476971    706.87718   0.14596152 
    6060    801132.93    500.15223   -795.08153    104.41024    87.743148    87.447677    795.08153   0.14645933 
    6080    801893.62    500.65372   -629.67853    104.45558    87.757249    87.478661    629.67853   0.14695714 
    6100    801994.72    499.89091   -8.4780999    104.50091    87.745794    87.463149    8.4780999   0.14745495 
    6120    801730.29     500.5461   -583.73659    104.54625    87.738062    87.404097    583.73659   0.14795276 
    6140    800493.03    498.62499   -320.49623    104.59159    87.583481    87.385344    320.49623   0.14845058 
    6160    800924.15    501.39259   -112.01564    104.63692    87.520233    87.457681    112.01564   0.14894839 
    6180    801526.23    500.77431   -824.86238    104.68226    87.497402    87.508349    824.86238    0.1494462 
    6200     800945.5    503.20853   -681.86062     104.7276    87.458014    87.446456    681.86062   0.14994401 
    6220    800262.29    500.22351   -394.56616    104.77293    87.411201     87.38083    394.56616   0.15044182 
    6240    800098.15    500.10108   -193.20678    104.81827    87.357962    87.378339    193.20678   0.15093963 
    6260    800245.75    498.71147    29.076705    104.86361    87.336069    87.378572   -29.076705   0.15143744 
    6280    801137.86    497.19778   -609.52627    104.90894    87.361441    87.412784    609.52627   0.15193525 
    6300    801469.95    499.27322   -876.85873    104.95428     87.37501    87.397669    876.85873   0.15243307 
    6320    800455.19    500.71881   -606.39891    104.99962    87.349031    87.275274    606.39891   0.15293088 
    6340    799771.14     499.3932   -422.89204    105.04495    87.331901    87.180153    422.89204   0.15342869 
    6360    801125.62    499.48868   -575.05292    105.09029    87.364568    87.257485    575.05292    0.1539265 
    6380    801466.43    499.66626   -846.75433    105.13563     87.40013    87.221459    846.75433   0.15442431 
    6400    800398.28    501.24448   -141.10485    105.18096    87.281873    87.185637    141.10485   0.15492212 
    6420    800188.34    500.34025   -8.4670096     105.2263    87.288166    87.118934    8.4670096   0.15541993 
    6440    799859.75    499.26623    122.00134    105.27164     87.31983    87.014091   -122.00134   0.15591774 
    6460    800137.06    499.00979    -219.3228    105.31697    87.330957    86.995702     219.3228   0.15641556 
    6480    801162.23    500.69508   -652.54209    105.36231    87.328844     87.07179    652.54209   0.15691337 
    6500    800933.59    497.70963   -429.34241    105.40765    87.314266    87.024028    429.34241   0.15741118 
    6520    800447.32    497.15785   -338.68898    105.45298    87.280544    86.967391    338.68898   0.15790899 
    6540     800406.3    499.38843   -912.46879    105.49832    87.218934    86.986966    912.46879    0.1584068 
    6560    800202.87    498.57944   -512.60033    105.54366    87.127873    87.018352    512.60033   0.15890461 
    6580    801280.89    500.85832   -564.32562    105.58899     87.19963    87.026496    564.32562   0.15940242 
    6600    801753.86    498.60742   -698.24747    105.63433    87.247325     86.99291    698.24747   0.15990023 
    6620    800656.46    500.10557   -195.95653    105.67967     87.18223    86.901407    195.95653   0.16039805 
    6640    801267.18    502.11645   -190.82168      105.725    87.166873    86.945715    190.82168   0.16089586 
    6660    803115.08     501.4313   -303.64243    105.77034    87.211873     87.06393    303.64243   0.16139367 
    6680    804264.73    502.78438   -184.10389    105.81568    87.246864    87.116252    184.10389   0.16189148 
    6700    804704.47    501.28498   -273.78944    105.86101    87.261183    87.112258    273.78944   0.16238929 
    6720    805726.83    502.65224   -765.24382    105.90635    87.316449    87.130411    765.24382    0.1628871 
    6740    806225.77    501.60683   -983.06263    105.95169    87.343547    87.120023    983.06263   0.16338491 
    6760    806984.31    501.43073   -950.14086    105.99702    87.319569    87.188628    950.14086   0.16388272 
    6780    808144.78    503.42588   -530.24189    106.04236    87.323475    87.272774    530.24189   0.16438054 
    6800    808823.72     500.2134   -704.27587     106.0877    87.293569    87.338678    704.27587   0.16487835 
    6820    807838.83    499.74155   -456.95618    106.13303    87.172395    87.316269    456.95618   0.16537616 
    6840    806997.82    502.03143   -330.05157    106.17837    87.055222    87.305475    330.05157   0.16587397 
    6860     806705.9    500.75191    142.90631    106.22371    87.030231    87.261695   -142.90631   0.16637178 
    6880    806800.38    500.97357   -73.574809    106.26904    87.030164    87.234751    73.574809   0.16686959 
    6900    806843.16    501.24296   -420.80476    106.31438    87.018696    87.213665    420.80476    0.1673674 
    6920    807032.51    501.84168   -623.85074    106.35972    87.012215    87.203445    623.85074   0.16786521 
    6940    807237.28    500.19905   -834.98111    106.40505    87.102159    87.098372    834.98111   0.16836303 
    6960    807436.05    498.41954   -707.94676    106.45039    87.097052    87.087822    707.94676   0.16886084 
    6980    807523.46    501.06822   -130.17282    106.49573    87.090145    87.067075    130.17282   0.16935865 
    7000    808726.49     501.7668    43.008637    106.54106    87.119326    87.130487   -43.008637   0.16985646 
    7020    810067.21    500.26537   -437.61815     106.5864    87.199721    87.157381    437.61815   0.17035427 
    7040    810274.21    498.82119   -992.80326    106.63174    87.120099    87.222228    992.80326   0.17085208 
    7060    809490.72    498.25524    -397.2843    106.67707    87.078717    87.142249     397.2843   0.17134989 
    7080    809377.05    499.98965     352.2823    106.72241    87.114384    87.057341    -352.2823    0.1718477 
    7100    809626.71    500.34375    216.43326    106.76775    87.182211    86.979493   -216.43326   0.17234552 
    7120    809892.54    501.04958   -360.05924    106.81308    87.163001     86.99029    360.05924   0.17284333 
    7140    810751.38    497.39351   -1104.0227    106.85842      87.2497    86.959095    1104.0227   0.17334114 
    7160    810724.75    500.48267   -958.53081    106.90376    87.234866    86.934142    958.53081   0.17383895 
    7180    809443.13    498.28301   -352.19612    106.94909    87.157035    86.837396    352.19612   0.17433676 
    7200    809097.96    500.45814   -271.69608    106.99443    87.119168    86.801299    271.69608   0.17483457 
    7220    809683.75    500.00364   -567.57095    107.03977    87.118901    86.827619    567.57095   0.17533238 
    7240    810160.06     500.7121   -735.64541     107.0851     87.10931    86.851476    735.64541   0.17583019 
    7260    809583.12    500.21359   -3.3392387    107.13044    87.038301    86.823673    3.3392387   0.17632801 
    7280    810043.09    499.62344   -61.568772    107.17577    86.986818    86.887649    61.568772   0.17682582 
    7300    810300.08    498.14132    -303.8943    107.22111     86.97875    86.886522     303.8943   0.17732363 
    7320    811102.61    498.33654   -702.57921    107.26645    87.011495      86.9031    702.57921   0.17782144 
    7340    811110.48     499.1008   -385.34946    107.31178    87.040446    86.838335    385.34946   0.17831925 
    7360    811443.61    498.34292   -366.03999    107.35712    87.131799    86.746269    366.03999   0.17881706 
    7380    812048.81    495.89332   -373.35806    107.40246    87.203726     86.70275    373.35806   0.17931487 
    7400     812755.2    495.90479   -904.93382    107.44779    87.232114    86.713327    904.93382   0.17981268 
    7420    812370.44    497.97334    -855.7636    107.49313    87.183423    86.684108     855.7636    0.1803105 
    7440    810547.35    498.02724   -80.397415    107.53847    87.072008    86.563734    80.397415   0.18080831 
    7460    810564.64    498.91447    147.51296     107.5838    87.040488    86.560438   -147.51296   0.18130612 
    7480    811036.62    500.22307   -320.64339    107.62914     87.00398    86.610685    320.64339   0.18180393 
    7500    810514.32     498.6368   -551.10934    107.67448    86.899284      86.6227    551.10934   0.18230174 
    7520    810297.37    501.37382   -479.91973    107.71981     86.82684    86.635292    479.91973   0.18279955 
    7540    810658.41    499.79416   -539.74368    107.76515    86.808803    86.655431    539.74368   0.18329736 
    7560    810062.63    501.72778    123.54874    107.81049    86.801047    86.563065   -123.54874   0.18379517 
    7580    810391.77    502.45732   -257.13551    107.85582    86.818634    86.544301    257.13551   0.18429299 
    7600    811440.43    501.55156   -1189.5977    107.90116    86.874995    86.563685    1189.5977    0.1847908 
    7620    811405.54    501.51994   -839.17633     107.9465    86.857949    86.540588    839.17633   0.18528861 
    7640    810418.43    501.27365   -107.05942    107.99183     86.84388    86.413017    107.05942   0.18578642 
    7660    810677.84    502.68919   -157.40827    108.03717    86.854503    86.393837    157.40827   0.18628423 
    7680    811668.95     500.1997   -216.49675    108.08251    86.929098    86.388981    216.49675   0.18678204 
    7700    811248.84     500.7344   -237.58633    108.12784    86.862353    86.374382    237.58633   0.18727985 
    7720    811952.27    502.79433   -312.95123    108.17318    86.942126    86.333758    312.95123   0.18777767 
    7740    812705.36    499.84278   -89.798871    108.21852    86.967738    86.352192    89.798871   0.18827548 
    7760    812844.54    502.43896   -646.65778    108.26385    86.913992    86.384199    646.65778   0.18877329 
    7780    813562.99    500.65115   -692.99534    108.30919    86.899159    86.439113    692.99534    0.1892711 
    7800    814721.45    500.06733    -941.9442    108.35453    86.949527    86.475856     941.9442   0.18976891 
    7820    814705.58     500.7868    -290.5588    108.39986    86.884093    86.503103     290.5588   0.19026672 
    7840    814837.75    500.43811   -93.867544     108.4452    86.846619    86.518283    93.867544   0.19076453 
    7860    815490.68    500.57151   -129.47605    108.49054     86.84556    86.552481    129.47605   0.19126234 
    7880    815572.33    497.88919   -442.87211    108.53587    86.878125    86.492557    442.87211   0.19176016 
    7900    814734.27    500.70005   -476.92892    108.58121    86.772526    86.472709    476.92892   0.19225797 
    7920    813536.64     500.3871   -761.24329    108.62655    86.663327    86.418314    761.24329   0.19275578 
    7940    813325.33    500.51845   -392.90988    108.67188    86.660171    86.362969    392.90988   0.19325359 
    7960    812449.38     498.2354    -318.7105    108.71722    86.630945    86.263072     318.7105    0.1937514 
    7980    811938.96    499.52936   -107.25347    108.76256    86.581692    86.221963    107.25347   0.19424921 
    8000    812081.83    498.09875   -321.43346    108.80789    86.535207    86.247507    321.43346   0.19474702 
    8020    812906.31    499.30855   -1009.8187    108.85323    86.549748    86.284616    1009.8187   0.19524483 
    8040    813461.76    499.81716    -417.0487    108.89857    86.547124    86.310243     417.0487   0.19574265 
    8060    814566.17    500.72275      -185.06     108.9439      86.5754    86.363241       185.06   0.19624046 
    8080    815364.31    497.24666    88.660985    108.98924    86.550339    86.436923   -88.660985   0.19673827 
    8100    815640.34    499.39259   -684.25217    109.03458    86.446777    86.533775    684.25217   0.19723608 
    8120    815276.24    499.13412   -521.63625    109.07991    86.358551    86.547526    521.63625   0.19773389 
    8140    815575.26    498.94861   -404.98841    109.12525    86.371903     86.52992    404.98841    0.1982317 
    8160    815847.28    499.27759   -719.75209    109.17059    86.397506    86.497194    719.75209   0.19872951 
    8180    815858.31    497.26592   -493.28747    109.21592    86.380119    86.479861    493.28747   0.19922732 
    8200    815277.53    498.15031   -452.85244    109.26126    86.280801    86.481876    452.85244   0.19972514 
    8220    814700.07    500.12667   -708.75999     109.3066    86.175553    86.490281    708.75999   0.20022295 
    8240    814545.58    498.91134   -248.98508    109.35193    86.103622    86.510237    248.98508   0.20072076 
    8260    814557.28    499.43954   -106.36605    109.39727    86.043248    86.536306    106.36605   0.20121857 
    8280    815303.17    498.77341   -153.43955    109.44261    86.072589    86.550153    153.43955   0.20171638 
    8300    814774.36    500.01932   -65.429565    109.48794     85.98923    86.542014    65.429565   0.20221419 
    8320    813790.92    501.91174   -175.85691    109.53328    85.972505    86.418589    175.85691     0.202712 
    8340    813252.81     499.0006   -571.50828    109.57862    85.954335    86.343963    571.50828   0.20320981 
    8360    813573.24    498.89152   -301.77434    109.62395    86.019116    86.277235    301.77434   0.20370763 
    8380    814730.71    501.81193   -384.58607    109.66929    85.998732    86.384736    384.58607   0.20420544 
    8400    814904.14      497.634   -680.67431    109.71463    86.020114    86.345953    680.67431   0.20470325 
    8420    814582.34    498.37594   -1007.2675    109.75996    85.980563    86.315891    1007.2675   0.20520106 
    8440    814366.75    499.60268   -690.43165     109.8053    85.975879    86.262116    690.43165   0.20569887 
    8460    814969.51    501.87376   -297.00069    109.85064    85.936625    86.329753    297.00069   0.20619668 
    8480    815645.28    502.02567   -65.628315    109.89597     85.91889    86.383519    65.628315   0.20669449 
    8500    815467.31    500.51275    -260.1227    109.94131    85.875967    86.372207     260.1227    0.2071923 
    8520    815633.94    500.53103   -113.03235    109.98665    85.892393     86.33773    113.03235   0.20769012 
    8540    816739.66    500.55402   -534.99828    110.03198    85.930376    86.380954    534.99828   0.20818793 
    8560    816563.74    504.20562    -259.9928    110.07732    85.934827    86.322307     259.9928   0.20868574 
    8580    817541.76    501.27118   -434.84418    110.12266    85.956521    86.368314    434.84418   0.20918355 
    8600    817725.09    500.99572   -410.05412    110.16799    85.892442    86.416553    410.05412   0.20968136 
    8620    818510.48    502.88539    -677.8422    110.21333     85.84926    86.507462     677.8422   0.21017917 
    8640    818409.89    501.69845   -281.52885    110.25867    85.780638    86.530431    281.52885   0.21067698 
    8660     820352.3    502.64724   -589.27666      110.304    85.870207    86.609717    589.27666   0.21117479 
    8680    821191.22    501.80369   -146.58526    110.34934    85.887508    86.645211    146.58526   0.21167261 
    8700    821654.96    501.07007   -133.16292    110.39468    85.893075    86.652921    133.16292   0.21217042 
    8720    821817.69    501.88973    104.19707    110.44001    85.877675     86.65004   -104.19707   0.21266823 
    8740    822748.84    499.86377   -342.71024    110.48535    85.905489    86.684545    342.71024   0.21316604 
    8760    822706.33     499.3667   -652.87467    110.53068    85.965035    86.584496    652.87467   0.21366385 
    8780    822632.42    499.70184   -643.39979    110.57602    86.077873    86.427775    643.39979   0.21416166 
    8800    822483.62    500.09333   -912.20389    110.62136     86.04185     86.41289    912.20389   0.21465947 
    8820     822650.9     498.2254   -584.29932    110.66669    86.048791    86.388089    584.29932   0.21515728 
    8840    822408.96    498.59885   -338.06757    110.71203    86.032822    86.343339    338.06757    0.2156551 
    8860    822850.87    499.53976   -389.48314    110.75737    86.116689    86.270275    389.48314   0.21615291 
    8880    823281.85    499.10029   -251.81964     110.8027    86.143989      86.2528    251.81964   0.21665072 
    8900    823365.22    499.10862     -329.617    110.84804    86.124322    86.245944      329.617   0.21714853 
    8920    823467.51    499.30482   -25.007616    110.89338    86.105597    86.240144    25.007616   0.21764634 
    8940    823639.72    501.58188   -441.48121    110.93871    86.112723    86.215793    441.48121   0.21814415 
    8960    823503.18    500.86037   -554.94866    110.98405    86.013638    86.265549    554.94866   0.21864196 
    8980    823643.88    500.20962   -434.81694    111.02939    85.999237    86.259499    434.81694   0.21913977 
    9000    823759.78    499.88859    -647.6102    111.07472     85.98047    86.255247     647.6102   0.21963759 
    9020    824208.79    499.02972   -767.58558    111.12006    85.936625    86.311065    767.58558    0.2201354 
    9040    824193.72    501.59814   -548.56456     111.1654    85.825929    86.385562    548.56456   0.22063321 
    9060    824354.78    500.69941   -356.18267    111.21073    85.795276    86.398077    356.18267   0.22113102 
    9080    824323.11    500.15682    182.39099    111.25607    85.764343      86.3907   -182.39099   0.22162883 
    9100    824779.44    498.68825   -298.38948    111.30141    85.806835    86.360528    298.38948   0.22212664 
    9120    824821.92    499.77615   -627.23744    111.34674    85.813944    86.322659    627.23744   0.22262445 
    9140     824077.3     498.2751   -213.55038    111.39208    85.761016    86.262833    213.55038   0.22312226 
    9160    822970.72    497.71962   -179.41526    111.43742    85.704648    86.168587    179.41526   0.22362008 
    9180    823135.53    496.84902   -862.31084    111.48275    85.688165    86.167366    862.31084   0.22411789 
    9200    822997.75    499.89336   -1021.8911    111.52809    85.599665    86.206957    1021.8911    0.2246157 
    9220    822987.36    499.46981   -381.77053    111.57343    85.539413    86.231537    381.77053   0.22511351 
    9240     823775.8    495.66867   -43.336962    111.61876    85.562839    86.255468    43.336962   0.22561132 
    9260    824259.63     500.2381   -302.83057     111.6641    85.572901    86.260943    302.83057   0.22610913 
    9280    824689.36     497.9929   -260.83184    111.70944    85.681722     86.16132    260.83184   0.22660694 
    9300    825157.65    496.13261   -375.65168    111.75477    85.687172     86.16979    375.65168   0.22710475 
    9320    825629.12    495.78535   -530.18225    111.80011    85.691395    86.179815    530.18225   0.22760257 
    9340    826362.75    499.24256   -234.28359    111.84545    85.707425    86.205302    234.28359   0.22810038 
    9360    827428.28    497.60364   -636.28769    111.89078    85.765054    86.223507    636.28769   0.22859819 
    9380    828486.63    498.53745   -860.72442    111.93612    85.828242    86.235291    860.72442     0.229096 
    9400     828008.8    498.88563   -178.29406    111.98146    85.839298    86.139567    178.29406   0.22959381 
    9420     827800.7     499.4681    182.26043    112.02679    85.782709    86.139853   -182.26043   0.23009162 
    9440     828821.6    499.24952   -306.12298    112.07213    85.791209    86.202655    306.12298   0.23058943 
    9460    829805.08    499.81848   -581.37159    112.11747    85.844569     86.21642    581.37159   0.23108724 
    9480    830045.55    500.67999   -726.34996     112.1628    85.862728    86.188314    726.34996   0.23158506 
    9500    830088.04    502.74074   -243.96195    112.20814    85.860536      86.1601    243.96195   0.23208287 
    9520    830138.71    501.80951   -221.16006    112.25348      85.8372    86.153975    221.16006   0.23258068 
    9540    830567.06    500.63793   -600.46774    112.29881     85.84592    86.154879    600.46774   0.23307849 
    9560    830435.31    501.15367   -435.09443    112.34415    85.900241    86.051999    435.09443    0.2335763 
    9580    831254.04    500.42249   -151.90808    112.38949    85.956808    86.045428    151.90808   0.23407411 
    9600    832148.13     500.9854   -177.97804    112.43482    85.988313    86.071698    177.97804   0.23457192 
    9620    833159.85     501.9561   -853.77904    112.48016    86.048975    86.080883    853.77904   0.23506973 
    9640    833334.93    499.60217   -773.19945     112.5255    86.078721     86.03454    773.19945   0.23556755 
    9660    833184.36    500.31026   -437.68936    112.57083    86.025553    86.037495    437.68936   0.23606536 
    9680    833340.93    500.90528    -131.5923    112.61617    85.995424    86.049157     131.5923   0.23656317 
    9700    834094.34    501.70408   -97.884725    112.66151    85.999748    86.087965    97.884725   0.23706098 
    9720    833914.87    499.28149   -366.04337    112.70684    85.972725    86.061862    366.04337   0.23755879 
    9740    833131.18    500.48382   -854.92696    112.75218    85.921768    85.997384    854.92696    0.2380566 
    9760    831548.06    500.17974   -309.69731    112.79752    85.829922    85.891285    309.69731   0.23855441 
    9780    831739.19    501.12421   -132.57972    112.84285    85.832149    85.874283    132.57972   0.23905222 
    9800    832268.88    498.76004   -102.75229    112.88819    85.902407     85.82421    102.75229   0.23955004 
    9820    832327.43     499.7097   -397.02793    112.93353    85.942823    85.755445    397.02793   0.24004785 
    9840    831628.74    499.45629   -441.83591    112.97886    85.910821     85.68098    441.83591   0.24054566 
    9860    831280.29    501.06095   -546.15995     113.0242    85.852974     85.66841    546.15995   0.24104347 
    9880    831665.37    499.37842   -560.94574    113.06954    85.850107    85.676588    560.94574   0.24154128 
    9900    832201.19    499.88045   -218.67355    113.11487    85.793563    85.753907    218.67355   0.24203909 
    9920    832749.48    500.99004   -120.98182    113.16021    85.781246    85.788343    120.98182    0.2425369 
    9940    833856.36    500.53623   -483.44853    113.20555    85.776392    85.872828    483.44853   0.24303471 
    9960    833900.01     497.5042   -658.14884    113.25088     85.73613    85.883257    658.14884   0.24353253 
    9980    833919.63     499.8272   -295.72002    113.29622    85.717145    85.869925    295.72002   0.24403034 
   10000    833673.04    502.23158   -270.40893    113.34156    85.693018    85.834355    270.40893   0.24452815 
   10020    833681.92    503.30312   -119.71621    113.38689    85.622211    85.871904    119.71621   0.24502596 
   10040    833944.89    498.63497   -9.9986379    113.43223    85.630103    85.856745    9.9986379   0.24552377 
   10060     834034.6    500.66358   -318.20447    113.47757    85.589688    85.872206    318.20447   0.24602158 
   10080    834778.85    502.29075   -467.80189     113.5229    85.635255    85.868793    467.80189   0.24651939 
   10100     834431.1    501.87079   -193.60653    113.56824    85.624558    85.809476    193.60653    0.2470172 
   10120    834420.33    498.53103   -393.57771    113.61358    85.573086     85.82572    393.57771   0.24751502 
   10140    834669.18    498.44427    -608.6475    113.65891    85.522149    85.868184     608.6475   0.24801283 
   10160    835241.84    499.72086   -677.48349    113.70425    85.553627    85.861233    677.48349   0.24851064 
   10180    835350.38    501.27327   -248.64244    113.74959    85.541539    85.850295    248.64244   0.24900845 
   10200    835500.23    499.16591   -61.993329    113.79492    85.521898    85.851198    61.993329   0.24950626 
   10220    835405.85    500.35809   -263.43102    113.84026    85.505899     85.82337    263.43102   0.25000407 
   10240    835836.73    500.29923   -461.39129     113.8856    85.521696    85.817597    461.39129   0.25050188 
   10260    836798.57    499.36692    -558.4363    113.93093    85.527092    85.876746     558.4363   0.25099969 
   10280    836815.44     499.0721   -186.68301    113.97627    85.535261    85.836118    186.68301   0.25149751 
   10300    836340.45    498.09222    154.98209     114.0216    85.484483    85.804223   -154.98209   0.25199532 
   10320    835992.82    497.86321   -371.49011    114.06694    85.469198    85.749802    371.49011   0.25249313 
   10340    836570.19    498.12971   -668.42779    114.11228    85.471778    85.772343    668.42779   0.25299094 
   10360    837080.16      498.595   -638.48067    114.15761     85.47951    85.782785    638.48067   0.25348875 
   10380     836513.1    499.92783   -110.26272    114.20295    85.383248     85.78725    110.26272   0.25398656 
   10400    836054.98    499.48068    316.55905    114.24829    85.350196    85.739435   -316.55905   0.25448437 
   10420    836117.01    495.25546   -342.37749    114.29362    85.293935     85.76832    342.37749   0.25498219 
   10440    836302.94    498.06303    -639.7036    114.33896    85.302847    85.744419     639.7036      0.25548 
   10460    836056.59    498.86341   -708.74497     114.3843    85.282275    85.705853    708.74497   0.25597781 
   10480    835318.34    497.53021   -187.20493    114.42963    85.280453    85.598077    187.20493   0.25647562 
   10500    835480.06    500.25633    87.000236    114.47497    85.290632    85.570528   -87.000236   0.25697343 
   10520    836405.71     497.9377   -822.94522    114.52031    85.327992    85.593929    822.94522   0.25747124 
   10540    836935.63    498.07524   -587.78201    114.56564    85.325835    85.616429    587.78201   0.25796905 
   10560    837343.59    501.90374   -430.10137    114.61098    85.328692    85.621411    430.10137   0.25846686 
   10580    837441.93    502.02425   -271.62569    114.65632    85.325182    85.601127    271.62569   0.25896468 
   10600    837851.72    500.55912   -75.592058    114.70165    85.347897     85.58638    75.592058   0.25946249 
   10620    838327.34    499.37085   -344.98375    114.74699    85.391957    85.556963    344.98375    0.2599603 
   10640    839076.02    500.61453   -455.83356    114.79233     85.39163    85.599878    455.83356   0.26045811 
   10660    838564.29    500.91545   -499.43765    114.83766    85.329584    85.576079    499.43765   0.26095592 
   10680    838338.92    500.14643   -594.89617      114.883     85.29694    85.552048    594.89617   0.26145373 
   10700     839084.3    501.27407    -144.7265    114.92834    85.300604    85.590658     144.7265   0.26195154 
   10720    839386.48    502.70781    -377.8057    114.97367    85.281999    85.606391     377.8057   0.26244935 
   10740    839484.78    500.73875   -540.82371    115.01901    85.239965    85.624872    540.82371   0.26294717 
   10760    839480.08    499.32068   -810.42383    115.06435    85.229035    85.601632    810.42383   0.26344498 
   10780    838753.26    501.74263   -208.54979    115.10968    85.119882    85.603466    208.54979   0.26394279 
   10800    838473.26    501.21308    201.46252    115.15502    85.076191    85.585128   -201.46252    0.2644406 
   10820    839164.81    500.92731    -259.4216    115.20036    85.036226    85.662246     259.4216   0.26493841 
   10840    840025.94    500.97876   -800.60956    115.24569    85.080463     85.67185    800.60956   0.26543622 
   10860    839477.85    498.71724   -472.59285    115.29103    85.079244     85.58351    472.59285   0.26593403 
   10880    838607.93    497.44975   -15.171334    115.33637    85.098768    85.441611    15.171334   0.26643184 
   10900    838854.81    500.38494    121.30938     115.3817    85.119092    85.412783   -121.30938   0.26692966 
   10920    839301.52    499.54758   -667.49521    115.42704    85.164484    85.379171    667.49521   0.26742747 
   10940    839894.47    498.02436   -590.62419    115.47238    85.227456     85.34284    590.62419   0.26792528 
   10960    839446.02    498.83049   -755.97538    115.51771    85.235393    85.255856    755.97538   0.26842309 
   10980    838332.72    499.75447   -401.20921    115.56305    85.152745    85.191991    401.20921    0.2689209 
   11000    838528.24    498.68853   -165.50796    115.60839    85.161814    85.169373    165.50796   0.26941871 
   11020    839546.39    500.29678    -372.9129    115.65372    85.255544    85.145647     372.9129   0.26991652 
   11040    839641.86    500.36538   -292.98234    115.69906    85.249958    85.127539    292.98234   0.27041433 
   11060    839640.58    500.03671   -186.48839     115.7444    85.217083    85.126892    186.48839   0.27091215 
   11080    839272.47    498.80554    199.06209    115.78973    85.133593     85.13967   -199.06209   0.27140996 
   11100     839248.6    500.07416   -636.34064    115.83507     85.13228     85.10524    636.34064   0.27190777 
   11120    839046.95    499.87187   -1034.9451    115.88041    85.078143    85.105623    1034.9451   0.27240558 
   11140    839496.51    500.73958   -772.79942    115.92574    85.070242    85.125826    772.79942   0.27290339 
   11160    839154.99    500.27963   -151.97918    115.97108    85.007325    85.120885    151.97918    0.2734012 
   11180    838013.57    501.37475   -268.87994    116.01642    84.926609    85.052644    268.87994   0.27389901 
   11200    837678.51    498.95479   -148.15907    116.06175    84.897615    85.014452    148.15907   0.27439682 
   11220    839206.64     500.7303   -251.94549    116.10709    84.969975    85.063781    251.94549   0.27489464 
   11240    839503.11    502.64809   -330.16586    116.15243    85.053623    84.976963    330.16586   0.27539245 
   11260    839056.36    500.11062   -136.15702    116.19776    85.078818    84.873462    136.15702   0.27589026 
   11280    839325.51    500.34476    266.71781     116.2431    85.088863    84.857556   -266.71781   0.27638807 
   11300    840278.55    499.83369   -386.88008    116.28844    85.083468    84.926175    386.88008   0.27688588 
   11320    840530.58    499.70737   -980.80031    116.33377    85.094689    84.907343    980.80031   0.27738369 
   11340    840967.48    499.21353      -685.43    116.37911    85.105982    84.907115       685.43    0.2778815 
   11360    841377.58    499.04925    -239.3654    116.42445    85.114723     84.90672     239.3654   0.27837931 
   11380    840896.14    499.12511   -358.43486    116.46978    85.069045    84.870652    358.43486   0.27887713 
   11400    840691.82    499.49491   -343.87383    116.51512    85.012778    84.873153    343.87383   0.27937494 
   11420    840707.41    499.33761    89.820174    116.56046    85.008376    84.846107   -89.820174   0.27987275 
   11440    841663.03    498.86817   -343.80247    116.60579    84.979705    84.938172    343.80247   0.28037056 
   11460    841701.59    499.03343   -276.45312    116.65113     84.96149    84.927254    276.45312   0.28086837 
   11480    841760.29    499.70568   -96.842641    116.69647    84.897738    84.963934    96.842641   0.28136618 
   11500    842194.52    498.89954   -190.63825     116.7418    84.897011    84.975478    190.63825   0.28186399 
   11520    842070.62    501.34528   -348.75701    116.78714    84.814742    85.012376    348.75701    0.2823618 
   11540    842331.28    499.00758   -485.25735    116.83248    84.832462    84.987935    485.25735   0.28285962 
   11560     842722.6     498.1618   -551.73538    116.87781    84.828401    84.998505    551.73538   0.28335743 
   11580    842401.14    500.17102   -501.06641    116.92315    84.878671    84.882835    501.06641   0.28385524 
   11600    841834.69    500.38918    -97.15669    116.96849    84.825547    84.845983     97.15669   0.28435305 
   11620    842218.12    502.57848   -122.57348    117.01382    84.896881    84.780443    122.57348   0.28485086 
   11640    842320.44    501.07098   -190.18089    117.05916     84.86997    84.784779    190.18089   0.28534867 
   11660    842710.12    501.49964   -115.73857     117.1045    84.839166    84.821949    115.73857   0.28584648 
   11680    843005.82    500.34246   -202.83704    117.14983    84.794282    84.863773    202.83704   0.28634429 
   11700    844171.44    499.84342   -806.17435    117.19517      84.8289    84.913572    806.17435   0.28684211 
   11720    844665.78    502.90613   -833.01193    117.24051    84.803171     84.95621    833.01193   0.28733992 
   11740    844321.85    502.39289   -361.20539    117.28584    84.791991    84.899983    361.20539   0.28783773 
   11760     843898.8    501.62743    220.32893    117.33118    84.732462    84.884249   -220.32893   0.28833554 
   11780    844906.45    502.53236   -536.97801    117.37651    84.719272    84.966005    536.97801   0.28883335 
   11800     844435.9    502.43234   -617.77331    117.42185     84.64885    84.956518    617.77331   0.28933116 
   11820    844185.82     502.8082   -607.50526    117.46719    84.652905    84.894511    607.50526   0.28982897 
   11840    844834.29    502.33525   -389.38198    117.51252    84.708124    84.871585    389.38198   0.29032678 
   11860    845168.99    501.08649    70.691207    117.55786    84.747797    84.832733   -70.691207    0.2908246 
   11880     845142.8    503.82926   -138.65705     117.6032    84.766432    84.778761    138.65705   0.29132241 
   11900    845327.77    501.26935   -36.171394    117.64853    84.779867    84.751205    36.171394   0.29182022 
   11920    845885.74    499.77056    -714.1197    117.69387    84.785594    84.768752     714.1197   0.29231803 
   11940    844966.65    500.48099   -447.22467    117.73921     84.73974    84.689844    447.22467   0.29281584 
   11960    844816.44    503.56615    32.570656    117.78454    84.668249    84.713665   -32.570656   0.29331365 
   11980    845128.71    500.29669    19.121295    117.82988    84.617137    84.763541   -19.121295   0.29381146 
   12000    845823.78    500.16987    -110.7187    117.87522    84.625197    84.792549     110.7187   0.29430927 
   12020    845661.52    501.44063   -290.42647    117.92055    84.675331    84.693515    290.42647   0.29480709 
   12040    845884.97    500.42486   -618.43135    117.96589     84.67542    84.683246    618.43135    0.2953049 
   12060    845500.97    500.42711   -342.32812    118.01123    84.611469    84.676236    342.32812   0.29580271 
   12080    845461.67    499.87312   -401.43588    118.05656     84.53225    84.719104    401.43588   0.29630052 
   12100    845768.14    500.97782    13.849812     118.1019    84.552129    84.697363   -13.849812   0.29679833 
   12120     846466.9    498.66681   -309.87069    118.14724    84.528151    84.758846    309.87069   0.29729614 
   12140     846426.4    497.52958   -600.35731    118.19257    84.497313    84.753201    600.35731   0.29779395 
   12160    847122.07    497.84492     -358.508    118.23791    84.493507    84.794154      358.508   0.29829176 
   12180    847812.24    498.72498    -598.6782    118.28325    84.498869    84.825328     598.6782   0.29878958 
   12200    847418.75    500.16204   -173.89281    118.32858    84.469896    84.782544    173.89281   0.29928739 
   12220    848230.29    498.76013   -555.55403    118.37392    84.470565    84.830562    555.55403    0.2997852 
   12240    849541.34    498.49878   -775.69277    118.41926    84.475203    84.924489    775.69277   0.30028301 
   12260       849380    500.67849   -261.22712    118.46459    84.505547    84.845389    261.22712   0.30078082 
   12280    848463.07    501.03018   -241.78251    118.50993    84.466658    84.760379    241.78251   0.30127863 
   12300    848979.23    501.28585    22.485073    118.55527    84.463846    84.782332   -22.485073   0.30177644 
   12320    850205.38    501.60131   -333.94282     118.6006    84.527468    84.808443    333.94282   0.30227425 
   12340    850914.62    501.24214   -589.16667    118.64594    84.546475    84.827681    589.16667   0.30277207 
   12360    850900.14    503.61689   -433.13207    118.69128    84.501024    84.839445    433.13207   0.30326988 
   12380    849946.37    499.32083   -278.06071    118.73661    84.439321    84.773894    278.06071   0.30376769 
   12400    849287.23    502.99386   -45.631207    118.78195    84.314005    84.801674    45.631207    0.3042655 
   12420    850009.43     503.2894   -408.76383    118.82729    84.323843    84.831506    408.76383   0.30476331 
   12440    850069.34    502.06867   -516.37177    118.87262    84.285009    84.844202    516.37177   0.30526112 
   12460    848194.89    503.39875   -165.80697    118.91796    84.171881    84.738577    165.80697   0.30575893 
   12480    848057.96    502.34306    134.80649     118.9633    84.148067    84.716577   -134.80649   0.30625674 
   12500    849341.59    504.35358   -269.64079    119.00863    84.201034    84.759132    269.64079   0.30675456 
   12520    848982.28    499.19876   -581.16606    119.05397    84.149402    84.742976    581.16606   0.30725237 
   12540    847690.72    502.01605    -495.0842    119.09931    84.090658    84.640934     495.0842   0.30775018 
   12560    847853.12    501.96725   -329.07066    119.14464    84.093854    84.621719    329.07066   0.30824799 
   12580    848491.45    500.72803   -632.57249    119.18998    84.107835    84.639145    632.57249    0.3087458 
   12600    848477.34    500.91412   -236.94638    119.23532    84.095947    84.617516    236.94638   0.30924361 
   12620    848851.17    499.62327   -528.25798    119.28065    84.097488    84.621071    528.25798   0.30974142 
   12640    849733.39    498.07564   -480.64319    119.32599    84.080196    84.694249    480.64319   0.31023923 
   12660    850301.71    501.23186   -251.34697    119.37133    84.070825     84.72815    251.34697   0.31073705 
   12680    850051.23    500.65865    40.983372    119.41666    84.098613    84.643056   -40.983372   0.31123486 
   12700    850450.11    498.87191    46.447633      119.462    84.169542    84.579303   -46.447633   0.31173267 
   12720    850288.16    498.61483   -296.38171    119.50734    84.158918    84.541787    296.38171   0.31223048 
   12740    850976.74    501.80652   -779.51471    119.55267    84.152401    84.584714    779.51471   0.31272829 
   12760    851326.39    500.08204   -624.14229    119.59801    84.111726    84.628297    624.14229    0.3132261 
   12780    851644.74    497.76272   -396.09186    119.64335    84.132076    84.607393    396.09186   0.31372391 
   12800    851750.07    499.33723   -66.471843    119.68868    84.151609    84.566171    66.471843   0.31422172 
   12820    851998.17    500.56676   -232.86033    119.73402    84.180846    84.529405    232.86033   0.31471954 
   12840    852357.54    498.69044   -441.77264    119.77936    84.112627    84.601612    441.77264   0.31521735 
   12860    853416.85    499.29426   -377.56399    119.82469     84.09767    84.689766    377.56399   0.31571516 
   12880    853316.82    499.35572   -349.44955    119.87003    84.066445    84.679253    349.44955   0.31621297 
   12900    852008.01    499.32381   -151.02774    119.91537    83.992282    84.592033    151.02774   0.31671078 
   12920    851553.18    497.91664   -22.535823     119.9607    83.971675    84.535662    22.535823   0.31720859 
   12940    852449.35    500.23205   -463.90889    120.00604    84.017822    84.546194    463.90889    0.3177064 
   12960    854051.09    497.72405   -581.46124    120.05138    84.026535    84.664288    581.46124   0.31820422 
   12980    854352.59    500.39715   -779.61617    120.09671    83.957669    84.731647    779.61617   0.31870203 
   13000    854445.26    498.29609    -405.9393    120.14205    83.882656    84.784613     405.9393   0.31919984 
   13020    854446.47    497.72087    194.38606    120.18739     83.84732    84.788468   -194.38606   0.31969765 
[...]
   36740    1087702.8    500.94824   -613.44824    173.95662    78.800165     79.34913    613.44824    0.9101018 
   36760    1086887.8    500.71045   -141.36342    174.00196    78.753348    79.316136    141.36342   0.91059961 
   36780    1087386.9    500.27852    247.85668    174.04729    78.800928     79.28399   -247.85668   0.91109742 
   36800      1088347    500.72304    147.57112    174.09263    78.833116    79.300933   -147.57112   0.91159524 
   36820      1088041    504.01973   -153.42159    174.13797    78.830535    79.260594    153.42159   0.91209305 
   36840    1088399.7    501.83829   -197.50439     174.1833    78.826293    79.270351    197.50439   0.91259086 
   36860    1089081.4    501.77016   -416.94399    174.22864     78.88708    79.238254    416.94399   0.91308867 
   36880    1089553.7    500.88984    -76.59569    174.27398     78.86722    79.271953     76.59569   0.91358648 
   36900    1089307.8    503.39234    117.57964    174.31931    78.858163    79.242555   -117.57964   0.91408429 
   36920    1089465.3    502.67044    34.100139    174.36465    78.913736    79.177606   -34.100139    0.9145821 
   36940    1090782.7    498.65701   -400.23825    174.40999    78.991012    79.175207    400.23825   0.91507992 
   36960    1091369.3    498.10505   -65.209219    174.45532    79.005658    79.182521    65.209219   0.91557773 
   36980    1091441.2    499.74252    71.665503    174.50066     78.98114    79.191735   -71.665503   0.91607554 
   37000    1092144.4    499.75672   -337.05733      174.546    78.957892    79.245505    337.05733   0.91657335 
   37020    1092081.8    498.90069   -208.33537    174.59133    78.922152     79.25626    208.33537   0.91707116 
   37040    1091349.1    501.28737    48.697648    174.63667    78.866093    79.238805   -48.697648   0.91756897 
   37060    1091629.9     500.3845    286.45321    174.68201    78.827084    79.277838   -286.45321   0.91806678 
   37080    1092852.9    498.04529    250.83253    174.72734    78.823242    79.349931   -250.83253   0.91856459 
   37100    1093947.2    500.75706    98.418033    174.77268    78.824054    79.407964   -98.418033   0.91906241 
   37120    1094206.7      499.887   -170.71786    174.81802    78.802864    79.427549    170.71786   0.91956022 
   37140    1093226.8    502.17119   -142.96587    174.86335    78.726634    79.412666    142.96587   0.92005803 
   37160    1092935.8    500.36082   -118.71245    174.90869    78.695107     79.40275    118.71245   0.92055584 
   37180    1093386.9    500.01256   -52.048283    174.95403    78.696164    79.413874    52.048283   0.92105365 
   37200    1093708.1     500.2084   -258.04362    174.99936     78.70268    79.410044    258.04362   0.92155146 
   37220    1094934.5    500.13864   -135.44728     175.0447    78.736203    79.444662    135.44728   0.92204927 
   37240      1094991    500.54391   -3.3589221    175.09004    78.767453    79.396679    3.3589221   0.92254708 
   37260    1094383.1    501.41596    295.44754    175.13537    78.788763    79.310595   -295.44754    0.9230449 
   37280    1094136.4    500.33245    316.06156    175.18071     78.82247    79.238297   -316.06156   0.92354271 
   37300    1094502.9    500.22878   -176.89901    175.22604     78.87424    79.192324    176.89901   0.92404052 
   37320    1095083.6    501.74437   -353.36373    175.27138    78.886847    79.201182    353.36373   0.92453833 
   37340    1095133.4    500.87968   -194.40951    175.31672    78.895649    79.175471    194.40951   0.92503614 
   37360    1094335.4    502.45088    16.844489    175.36205    78.860419    79.132653   -16.844489   0.92553395 
   37380    1093837.9    503.70322   -4.6654185    175.40739    78.873595    79.063026    4.6654185   0.92603176 
   37400    1093960.4    501.06743   -411.74181    175.45273    78.858492     79.06659    411.74181   0.92652957 
   37420    1096215.5    503.22984   -291.16346    175.49806    78.886583    79.180907    291.16346   0.92702739 
   37440      1097103    504.27145    95.198223     175.5434    78.893081    79.218016   -95.198223    0.9275252 
   37460    1097311.8     502.6541    278.81773    175.58874    78.934287    79.171289   -278.81773   0.92802301 
   37480    1097858.8    502.76338     77.19725    175.63407    78.950483    79.174061    -77.19725   0.92852082 
   37500    1098557.4    503.53899   -38.447949    175.67941    78.940198    79.214316    38.447949   0.92901863 
   37520    1099791.7    501.78686   -58.469472    175.72475    78.937764      79.2853    58.469472   0.92951644 
   37540    1099727.4    500.22721   -212.77887    175.77008    78.914079    79.284004    212.77887   0.93001425 
   37560      1100641    499.31271   -45.674675    175.81542    78.923698     79.31974    45.674675   0.93051206 
   37580    1100399.9    499.39235   -346.20439    175.86076    78.921536    79.284096    346.20439   0.93100988 
   37600    1101148.3    500.52165   -386.78768    175.90609    78.962394    79.276528    386.78768   0.93150769 
   37620    1102838.3     500.1077   -99.765484    175.95143     79.01028    79.329631    99.765484    0.9320055 
   37640    1102371.8    499.98792    91.950039    175.99677    78.944115    79.342092   -91.950039   0.93250331 
   37660    1101691.9    500.65649    145.39488     176.0421    78.934121    79.282772   -145.39488   0.93300112 
   37680    1101276.4    499.53222    42.842878    176.08744    78.931076    79.235523   -42.842878   0.93349893 
   37700      1102214    501.27932   -112.16864    176.13278    79.009231    79.204144    112.16864   0.93399674 
   37720    1102680.3    497.99618    5.3538669    176.17811    78.959161    79.267496   -5.3538669   0.93449455 
   37740    1102616.1    499.43351   -68.760609    176.22345    78.961736    79.239904    68.760609   0.93499237 
   37760    1102879.3    500.50759   -88.127675    176.26879    78.938551    79.261708    88.127675   0.93549018 
   37780    1103429.1    498.74565   -399.40476    176.31412    78.916291    79.303193    399.40476   0.93598799 
   37800    1103363.6    499.79307   -266.91128    176.35946    78.864218    79.330446    266.91128    0.9364858 
   37820    1101921.9    498.56077    66.047627     176.4048    78.817047    79.253834   -66.047627   0.93698361 
   37840    1100934.2    500.72594    383.92205    176.45013    78.784766    79.194881   -383.92205   0.93748142 
   37860    1101503.4    500.30688    22.661192    176.49547    78.807921    79.192197   -22.661192   0.93797923 
   37880    1101118.6    500.78434   -364.75487    176.54081    78.795654    79.156524    364.75487   0.93847704 
   37900    1100088.7    499.10584   -94.502818    176.58614    78.801323    79.056502    94.502818   0.93897486 
   37920    1099513.4    500.75497   -25.662033    176.63148    78.830804     78.96533    25.662033   0.93947267 
   37940    1099691.6    499.77485    40.337648    176.67682    78.853523    78.935114   -40.337648   0.93997048 
   37960    1100141.5     498.4778   -42.326285    176.72215    78.874246    78.926409    42.326285   0.94046829 
   37980    1099932.2    500.50872   -418.56627    176.76749    78.846643    78.918769    418.56627    0.9409661 
   38000    1100378.9    499.23003   -153.74881    176.81283    78.812725    78.964549    153.74881   0.94146391 
   38020    1100308.2    498.36232   -136.14288    176.85816    78.739032    79.013112    136.14288   0.94196172 
   38040    1101267.9    497.07291   -4.5961596     176.9035    78.707318    79.093619    4.5961596   0.94245953 
   38060    1102549.3    498.80568    176.93839    176.94884    78.752829    79.119609   -176.93839   0.94295735 
   38080    1102870.3    500.06089   -98.974326    176.99417    78.690348    79.185196    98.974326   0.94345516 
   38100    1102901.8     498.5877   -170.87906    177.03951      78.6561    79.201655    170.87906   0.94395297 
   38120    1102449.6    498.22816   -293.35152    177.08485    78.572112    79.233512    293.35152   0.94445078 
   38140    1101397.6    498.15562    131.14589    177.13018    78.513828    79.196395   -131.14589   0.94494859 
   38160      1101586    500.38908   -99.242196    177.17552    78.531048    79.172307    99.242196    0.9454464 
   38180    1100821.7    499.53727    42.276448    177.22086    78.570291    79.057628   -42.276448   0.94594421 
   38200    1100636.1    498.99298    192.32742    177.26619    78.620498    78.973622   -192.32742   0.94644202 
   38220    1100614.8    500.61176   -27.339351    177.31153    78.626518    78.945851    27.339351   0.94693984 
   38240    1101006.7     500.3394    -157.5738    177.35687      78.6642    78.915956     157.5738   0.94743765 
   38260    1101507.7     499.3421   -36.813924     177.4022    78.726365    78.869366    36.813924   0.94793546 
   38280    1102373.6    499.24889    246.86472    177.44754    78.784081    78.853389   -246.86472   0.94843327 
   38300    1102835.8    500.76999    324.46343    177.49288    78.775003    78.875385   -324.46343   0.94893108 
   38320    1103745.3    500.58137     61.50601    177.53821    78.760145    78.935166    -61.50601   0.94942889 
   38340      1105288    500.85511    -272.4067    177.58355    78.792478    78.992884     272.4067    0.9499267 
   38360    1106865.9    502.02245   -591.12665    177.62889    78.782972    79.095003    591.12665   0.95042451 
   38380      1108449    500.82851   -420.48574    177.67422    78.801644    79.169152    420.48574   0.95092233 
   38400    1109267.2    503.36069   -196.12698    177.71956    78.865372    79.143379    196.12698   0.95142014 
   38420    1109022.1    501.58067    264.69335     177.7649    78.835552    79.135633   -264.69335   0.95191795 
   38440    1109376.8    500.22475    470.76542    177.81023     78.83436    79.141955   -470.76542   0.95241576 
   38460    1110843.5    502.49749    66.378236    177.85557    78.835903    79.224842   -66.378236   0.95291357 
   38480    1111854.7    500.68097   -64.919683    177.90091    78.841649    79.270974    64.919683   0.95341138 
   38500    1111805.9    500.94061   -91.090257    177.94624    78.829827    79.259183    91.090257   0.95390919 
   38520    1111745.3    499.61425    192.88172    177.99158    78.847719    79.216695   -192.88172     0.954407 
   38540    1112273.8    499.75763   -54.549971    178.03692    78.851664    79.230205    54.549971   0.95490482 
   38560      1112916    498.75802    -454.2015    178.08225    78.856389    79.251019     454.2015   0.95540263 
   38580    1112997.7    499.00591   -293.24942    178.12759    78.819868    79.273383    293.24942   0.95590044 
   38600    1113325.6    498.95316   -256.78984    178.17293    78.865278    79.230912    256.78984   0.95639825 
   38620    1113629.8    501.23912    295.65042    178.21826    78.866508     79.23116   -295.65042   0.95689606 
   38640    1114485.1     500.9831   -121.16762     178.2636    78.903551     79.23463    121.16762   0.95739387 
   38660    1115959.7    498.14364   -410.76006    178.30894    78.929984    79.292735    410.76006   0.95789168 
   38680    1117225.9    499.10291   -92.947316    178.35427    78.951112    79.341284    92.947316   0.95838949 
   38700    1117562.7    502.12487    34.399461    178.39961    78.932013    79.364237   -34.399461   0.95888731 
   38720    1117344.9    501.05918    379.90426    178.44495    78.885453    79.375428   -379.90426   0.95938512 
   38740    1116658.1    499.53061    309.73817    178.49028    78.825229    79.367077   -309.73817   0.95988293 
   38760    1116674.9    498.98888   -179.56976    178.53562    78.807307    79.366168    179.56976   0.96038074 
   38780    1117178.4    501.77596   -539.59036    178.58095    78.792838    79.396373    539.59036   0.96087855 
   38800    1117282.3    500.91372   -399.14228    178.62629    78.773963    79.402622    399.14228   0.96137636 
   38820    1117668.2    499.71872    2.9989747    178.67163    78.753524    79.430501   -2.9989747   0.96187417 
   38840    1117985.6     500.5098   -27.128421    178.71696    78.688453    79.498592    27.128421   0.96237198 
   38860    1117260.5    502.53165   -134.61109     178.7623    78.616195    79.499879    134.61109    0.9628698 
   38880    1116458.9    501.31066   -6.1580505    178.80764    78.603234    79.435801    6.1580505   0.96336761 
   38900    1117390.7     500.8474   -6.3114132    178.85297    78.681255    79.403123    6.3114132   0.96386542 
   38920      1117020    498.14686   -191.29622    178.89831     78.67226     79.36574    191.29622   0.96436323 
   38940    1116215.9    498.93111    60.760157    178.94365    78.630361    79.330768   -60.760157   0.96486104 
   38960    1116647.5    498.76035   -57.714706    178.98898    78.606044    79.365882    57.714706   0.96535885 
   38980    1118037.2     499.8436    8.9103014    179.03432    78.621443    79.428975   -8.9103014   0.96585666 
   39000    1118872.1    497.18876   -115.08474    179.07966    78.651327     79.43797    115.08474   0.96635447 
   39020    1118981.9    497.57015   -222.09359    179.12499    78.618284    79.459038    222.09359   0.96685229 
   39040    1119288.6    496.83186   -195.47708    179.17033    78.596977    79.482251    195.47708    0.9673501 
   39060    1118135.3    499.08659   -39.950573    179.21567    78.568305    79.409232    39.950573   0.96784791 
   39080    1118389.6    496.69554   -68.279801      179.261    78.628972    79.345941    68.279801   0.96834572 
   39100    1118680.9    496.57702    46.708776    179.30634    78.632521    79.342955   -46.708776   0.96884353 
   39120    1119006.9    500.21081   -266.91125    179.35168    78.626993    79.351595    266.91125   0.96934134 
   39140      1117573    497.42762    191.90755    179.39701    78.564131    79.293279   -191.90755   0.96983915 
   39160    1116871.9    500.14251    70.055985    179.44235    78.574633    79.212926   -70.055985   0.97033696 
   39180      1117282    499.25621   -86.700416    179.48769    78.632546    79.163648    86.700416   0.97083478 
   39200    1118353.9    499.97497   -430.47879    179.53302    78.638692    79.213396    430.47879   0.97133259 
   39220    1118330.3    500.95768   -549.33243    179.57836    78.621876    79.208661    549.33243    0.9718304 
   39240      1118279      497.098   -35.659619     179.6237    78.688857    79.117637    35.659619   0.97232821 
   39260    1117970.4    499.71478    177.83555    179.66903    78.677075    79.087689   -177.83555   0.97282602 
   39280    1118423.3     501.7019    708.68015    179.71437    78.677681    79.099153   -708.68015   0.97332383 
   39300    1119167.8    500.90336    300.54544    179.75971    78.704685    79.104693   -300.54544   0.97382164 
   39320    1119825.7    501.16268    -395.0202    179.80504    78.754135    79.081556     395.0202   0.97431945 
   39340    1119482.7    499.45984   -443.39194    179.85038    78.736373     79.05523    443.39194   0.97481727 
   39360    1118846.9    501.97844   -56.046397    179.89572    78.736485    78.990308    56.046397   0.97531508 
   39380    1120303.6    500.38084    222.14583    179.94105    78.776986    79.032575   -222.14583   0.97581289 
   39400    1120897.1    501.12097    65.571206    179.98639    78.827374    79.003986   -65.571206    0.9763107 
   39420    1120598.2    500.11104   -149.66057    180.03173    78.778568    79.011949    149.66057   0.97680851 
   39440    1121320.8    503.78425   -237.97963    180.07706    78.825406    78.996031    237.97963   0.97730632 
   39460    1122080.3    501.22132   -214.77784     180.1224    78.820345    79.034714    214.77784   0.97780413 
   39480    1121376.1    498.60608   -69.084129    180.16774    78.751322    79.034447    69.084129   0.97830195 
   39500    1122231.8    501.12893    117.69871    180.21307    78.734252    79.092001   -117.69871   0.97879976 
   39520      1122607    501.33493      -154.24    180.25841    78.665554    79.167625       154.24   0.97929757 
   39540    1122662.6    498.95765    -158.1191    180.30375    78.656242    79.161006     158.1191   0.97979538 
   39560    1122117.2    500.35458    159.21521    180.34908    78.646845    79.112114   -159.21521   0.98029319 
   39580    1122671.5    498.92701    93.614153    180.39442    78.668098    79.109923   -93.614153     0.980791 
   39600      1123510    498.74173    23.795599    180.43976    78.653657    79.163647   -23.795599   0.98128881 
   39620    1123547.7    497.73041   -65.376143    180.48509    78.649728    79.150373    65.376143   0.98178662 
   39640    1123715.1    497.19769   -292.07196    180.53043     78.64325      79.1488    292.07196   0.98228444 
   39660    1124424.6    498.80058    5.9862885    180.57577    78.700266    79.121532   -5.9862885   0.98278225 
   39680    1124295.4    498.92661    312.57456     180.6211    78.660922    79.132137   -312.57456   0.98328006 
   39700    1125453.3    499.15741    311.16462    180.66644    78.682341    79.172202   -311.16462   0.98377787 
   39720    1127910.8    497.74706   -537.08976    180.71178    78.730569    79.276578    537.08976   0.98427568 
   39740    1127824.1    497.64279   -810.44816    180.75711    78.745719    79.235361    810.44816   0.98477349 
   39760    1127526.4    499.93786   -377.87277    180.80245    78.729388    79.211008    377.87277    0.9852713 
   39780    1128153.1    499.25162    199.63524    180.84779    78.788604    79.175616   -199.63524   0.98576911 
   39800    1129580.4    499.69137     406.6424    180.89312    78.816738    79.227625    -406.6424   0.98626693 
   39820    1130555.5    501.01461   -128.11014    180.93846    78.828852    79.263963    128.11014   0.98676474 
   39840    1130496.8    500.30992   -275.28968     180.9838    78.785436    79.283665    275.28968   0.98726255 
   39860    1130412.7    501.37747   -186.48344    181.02913    78.783819     79.25954    186.48344   0.98776036 
   39880    1130474.4    500.23917    375.16817    181.07447    78.766215    79.261728   -375.16817   0.98825817 
   39900    1131217.4    499.13995    299.76744    181.11981    78.776128    79.283988   -299.76744   0.98875598 
   39920    1132243.2    502.57829   -110.80913    181.16514    78.781542    79.330574    110.80913   0.98925379 
   39940      1131679    502.19287   -234.82463    181.21048    78.775659    79.277126    234.82463    0.9897516 
   39960    1131512.5    500.34351   -131.33224    181.25582    78.739506    79.282024    131.33224   0.99024942 
   39980    1133985.7    499.52258   -203.57421    181.30115    78.793002    79.381511    203.57421   0.99074723 
   40000    1134194.4    501.92822    7.3735106    181.34649    78.829373    79.339652   -7.3735106   0.99124504 
Loop time of 2154.44 on 64 procs for 40000 steps with 64040 atoms

Performance: 1.604 ns/day, 14.961 hours/ns, 18.566 timesteps/s
99.9% CPU use with 64 MPI tasks x 1 OpenMP threads

MPI task timing breakdown:
Section |  min time  |  avg time  |  max time  |%varavg| %total
---------------------------------------------------------------
Pair    | 359.04     | 614.68     | 781.87     | 498.2 | 28.53
Bond    | 31.492     | 50.059     | 58.947     | 111.6 |  2.32
Kspace  | 136.13     | 310.92     | 585.16     | 745.0 | 14.43
Neigh   | 1072.2     | 1081.4     | 1089.6     |  14.4 | 50.19
Comm    | 63.226     | 72.33      | 83.86      |  65.3 |  3.36
Output  | 1.836      | 1.8558     | 1.9101     |   0.7 |  0.09
Modify  | 18.472     | 21.086     | 23.416     |  28.4 |  0.98
Other   |            | 2.112      |            |       |  0.10

Nlocal:        1000.62 ave        1443 max          55 min
Histogram: 7 5 2 2 0 2 2 9 12 23
Nghost:        10689.5 ave       15057 max        4710 min
Histogram: 10 6 0 0 0 10 19 3 0 16
Neighs:       617532.0 ave 1.02148e+06 max        9755 min
Histogram: 13 2 1 0 0 6 5 12 21 4

Total # of neighbors = 39522017
Ave neighs/atom = 617.14580
Ave special neighs/atom = 5.8719550
Neighbor list builds = 40000
Dangerous builds not checked
Total wall time: 0:35:58
