LAMMPS (29 Oct 2020)
OMP_NUM_THREADS environment is not set. Defaulting to 1 thread. (../comm.cpp:94)
  using 1 OpenMP thread(s) per MPI task
####################################################
#    This program is free software: you can redistribute it and/or modify
#    it under the terms of the GNU General Public License as published by
#    the Free Software Foundation, either version 3 of the License, or
#    (at your option) any later version.
#
#    This program is distributed in the hope that it will be useful,
#    but WITHOUT ANY WARRANTY; without even the implied warranty of
#    MERCHANTABILITY or FITNESS FOR A PARTICULAR PURPOSE.  See the
#    GNU General Public License for more details.


units		real        ## defines the units style used herein. More information: https://docs.lammps.org/units.html
atom_style	full        ## defines the atom style used herein. More information: https://docs.lammps.org/atom_style.html

# Styles
pair_style      lj/cut/coul/long 15.0 10.0      ## sets the formula(s) LAMMPS uses to compute pairwise interactions; here, lennard-jones (LJ) with long-range Coulomb interaction. More: https://docs.lammps.org/pair_lj_cut_coul.html
pair_modify     shift no                        ## the shift keyword determines whether a Lennard-Jones potential is shifted at its cutoff to 0.0. More: https://docs.lammps.org/pair_modify.html
kspace_style    pppm 1.0e-4                     ## defines a long-range solver for LAMMPS to compute long-range Coulombic interactions. Note: requires use of a matching pair style, i.e. PPPM with coul/long. More: https://docs.lammps.org/kspace_style.html
bond_style      harmonic                        ## defined based off the forcefield used to construct the system; models the atoms' interactions
angle_style     harmonic
dihedral_style  opls
improper_style  cvff
special_bonds   lj 0 0 1 coul 0 0 1

read_data       500K_PS.lmps      ## input lammps datafile, equilibriated until structure nears experimental properties
Reading data file ...
  orthogonal box = (54.663378 54.663378 54.663378) to (145.33662 145.33662 145.33662)
  4 by 4 by 4 MPI processor grid
  reading atoms ...
  64040 atoms
  reading velocities ...
  64040 velocities
  scanning bonds ...
  2 = max bonds/atom
  scanning angles ...
  6 = max angles/atom
  scanning dihedrals ...
  12 = max dihedrals/atom
  scanning impropers ...
  3 = max impropers/atom
  reading bonds ...
  68020 bonds
  reading angles ...
  119880 angles
  reading dihedrals ...
  191660 dihedrals
  reading impropers ...
  51880 impropers
Finding 1-2 1-3 1-4 neighbors ...
  special bond factors lj:    0.0      0.0      1.0     
  special bond factors coul:  0.0      0.0      1.0     
     4 = max # of 1-2 neighbors
     8 = max # of 1-3 neighbors
    12 = max # of special neighbors
  special bonds CPU = 1.434 seconds
  read_data CPU = 2.986 seconds

dielectric      1.0
neighbor    	1.0 bin
neigh_modify	delay 0 every 1 check no        ## this is to make sure that the neighbor list is updated every timestep, and the atoms don't get lost as the system is being deformed ##

timestep	    1.0                             ## unit = fs, per "real" unit style
run_style       verlet                          ## defines algorithm used for simulation computation; verlet integration is a numerical method used to integrate Newton's equations of motion.

variable stress equal press*-1                         ## computes stress as the negative of press values
variable engStrain equal (lx-91.07191)/91.07191      ## computes engineering strain; lx_0 must be found and inputted manually (for now)

thermo		    20                                                               ## output log data (headers in thermo_style), recorded at every timestep in numList.txt
thermo_style    custom step vol temp press lx ly lz v_stress v_engStrain         ## data headers of output log file. More: https://docs.lammps.org/thermo_style.html

################# Deformation ##################

fix 1 all npt temp 500 500 100 y 1 1 100.0 z 1 1 100.0      ## stress normal to the x direction can vary; external pressure (y and z) = 1atm ##

fix 2 all deform 1 x scale 2.0 remap x                      ## sets a uniaxial (x-direction) deformation in motion, scaling a set amount (here, 4.0x) the initial length


################# Dumping ##################

reset_timestep 0

dump dump2 all custom 4000 sim.lammpstrj id mol type q xs ys zs ix iy iz

restart 8000 PMP.restart

run 		80000              ## this depends on the overall strain rate, where strain rate = deformScale / runTimeSteps (consider units!)
PPPM initialization ...
WARNING: System is not charge neutral, net charge = -8.9366436e-05 (../kspace.cpp:313)
  using 12-bit tables for long-range coulomb (../kspace.cpp:328)
  G vector (1/distance) = 0.20255614
  grid = 24 24 24
  stencil order = 5
  estimated absolute RMS force accuracy = 0.024281815
  estimated relative force accuracy = 7.3123966e-05
  using double precision FFTW3
  3d grid and FFT values/proc = 1331 216
Neighbor list info ...
  update every 1 steps, delay 0 steps, check no
  max neighbors/atom: 2000, page size: 100000
  master list distance cutoff = 16
  ghost atom cutoff = 16
  binsize = 8, bins = 12 12 12
  1 neighbor lists, perpetual/occasional/extra = 1 0 0
  (1) pair lj/cut/coul/long, perpetual
      attributes: half, newton on
      pair build: half/bin/newton
      stencil: half/bin/3d/newton
      bin: standard
Per MPI rank memory allocation (min/avg/max) = 18.05 | 18.46 | 18.84 Mbytes
Step Volume Temp Press Lx Ly Lz v_stress v_engStrain 
       0    745482.52    500.15548    12456.345    90.673244    90.673244    90.673244   -12456.345 -0.0043774811 
      20    749416.88    510.50943    638.47143    90.695913     90.89564    90.906032   -638.47143 -0.0041285755 
      40    753047.74    507.05468   -2402.2175    90.718581    91.123702    91.095077    2402.2175 -0.0038796699 
      60    751100.18    508.41763   -926.35481    90.741249    91.020588    90.939691    926.35481 -0.0036307642 
      80    748457.37    502.78133   -858.84291    90.763918    90.855319    90.761879    858.84291 -0.0033818586 
     100    747589.51     503.2559   -325.47903    90.786586    90.796369    90.692847    325.47903 -0.003132953 
     120    744264.48    503.76961    106.13025    90.809254    90.597184    90.465395   -106.13025 -0.0028840473 
     140    745036.17    504.62259    -157.1287    90.831923    90.616778    90.517018     157.1287 -0.0026351417 
     160    745854.03    504.19545    568.33728    90.854591    90.719313     90.49138   -568.33728 -0.0023862361 
     180    747178.29    503.21111   -281.82623    90.877259    90.760822    90.587987    281.82623 -0.0021373304 
     200    746371.84    500.65633    47.610225    90.899928     90.71293    90.515408   -47.610225 -0.0018884248 
     220    746567.43    502.21549   -885.48975    90.922596    90.715942     90.51355    885.48975 -0.0016395192 
     240    746564.94     500.9223   -155.80866    90.945264     90.68918     90.51739    155.80866 -0.0013906136 
     260    746375.85    501.30341    212.54172    90.967932    90.626772    90.534217   -212.54172 -0.0011417079 
     280     746702.7    501.76704    321.24376    90.990601    90.686521    90.491637   -321.24376 -0.0008928023 
     300    746878.85    500.06806    -104.3364    91.013269    90.697273    90.479714     104.3364 -0.00064389667 
     320    746396.28    498.41281   -257.96579    91.035937    90.675129    90.420814    257.96579 -0.00039499104 
     340    746380.71    500.29462   -45.998297    91.058606    90.660978     90.41053    45.998297 -0.00014608541 
     360    746316.31    499.38628   -504.19643    91.081274    90.715375    90.326032    504.19643 0.00010282022 
     380    746970.15    499.34296   -223.74206    91.103942    90.776492     90.32182    223.74206 0.00035172585 
     400    747364.36    498.38545   -419.19173    91.126611    90.824107    90.299642    419.19173 0.00060063148 
     420    746994.88     496.5493   -244.35623    91.149279     90.78319    90.273223    244.35623 0.00084953711 
     440    746130.93    497.44882    616.03479    91.171947    90.763454    90.165999   -616.03479 0.0010984427 
     460    745972.77    500.62698   -118.93242    91.194616    90.780062     90.10799    118.93242 0.0013473484 
     480    746677.19    498.43134   -246.80167    91.217284    90.826749    90.124315    246.80167  0.001596254 
     500    746633.42    499.77451   -452.99413    91.239952      90.8304    90.093021    452.99413 0.0018451596 
     520     746033.3    497.83367    213.23608    91.262621    90.780501    90.047717   -213.23608 0.0020940653 
     540    746355.56    499.88838    219.45821    91.285289    90.823584    90.021521   -219.45821 0.0023429709 
     560    747162.22    500.30636   -408.64888    91.307957    90.814691    90.105265    408.64888 0.0025918765 
     580    747661.11    501.57696   -67.295575    91.330625    90.811195    90.146521    67.295575 0.0028407821 
     600    746936.63    498.38005    151.47084    91.353294    90.772147    90.075554   -151.47084 0.0030896878 
     620    747671.67    498.17623    127.79714    91.375962    90.781452    90.132588   -127.79714 0.0033385934 
     640    747797.95    501.81106   -132.70105     91.39863    90.800259    90.106785    132.70105  0.003587499 
     660    747308.05    498.35475   -525.12754    91.421299    90.746317     90.07894    525.12754 0.0038364047 
     680    746821.42    500.13452   -54.404959    91.443967    90.694851    90.049037    54.404959 0.0040853103 
     700    747085.98    501.05603    -404.5608    91.466635    90.707941    90.045616     404.5608 0.0043342159 
     720    747006.21    500.95283      65.4786    91.489304    90.721729    90.000013     -65.4786 0.0045831216 
     740    746454.17    502.80895    12.519392    91.511972    90.682505    89.950117   -12.519392 0.0048320272 
     760    746130.75    502.70125   -49.827211     91.53464    90.648491    89.922605    49.827211 0.0050809328 
     780    745483.17     499.9933   -360.68175    91.557309    90.578366    89.891856    360.68175 0.0053298384 
     800    745520.59    501.99535   -282.07332    91.579977    90.567382    89.885016    282.07332 0.0055787441 
     820    746783.04    502.77724   -447.12305    91.602645    90.671865    89.911219    447.12305 0.0058276497 
     840     746806.1     500.0454   -615.50788    91.625314    90.610117    89.953008    615.50788 0.0060765553 
     860    746430.49    500.23336   -2.7057428    91.647982    90.599706    89.895857    2.7057428  0.006325461 
     880    745559.46    499.68189    47.110442     91.67065    90.461124    89.906273   -47.110442 0.0065743666 
     900    745653.17    503.51851    155.47124    91.693318    90.418222    89.937998   -155.47124 0.0068232722 
     920    746347.94    499.42295    16.722284    91.715987    90.449624    89.968303   -16.722284 0.0070721779 
     940    747663.34    497.10492   -581.19362    91.738655    90.528401     90.02619    581.19362 0.0073210835 
     960    748366.11    497.00454   -372.14211    91.761323    90.579372    90.037855    372.14211 0.0075699891 
     980    748099.42    498.65212   -582.31888    91.783992    90.520431    90.042131    582.31888 0.0078188947 
    1000    748547.01     499.6787   -19.147975     91.80666    90.548104    90.046228    19.147975 0.0080678004 
    1020    749397.37    498.68761    264.05992    91.829328    90.578296    90.096229   -264.05992  0.008316706 
    1040    750008.73    498.27575   -207.88608    91.851997    90.566723    90.158995    207.88608 0.0085656116 
    1060    749865.94    498.71802    -195.0396    91.874665    90.537372    90.148805     195.0396 0.0088145173 
    1080    749408.55    500.25763   -137.18171    91.897333    90.530559    90.078373    137.18171 0.0090634229 
    1100    750150.89    498.22801   -584.22112    91.920002    90.529859    90.146062    584.22112 0.0093123285 
    1120    750054.36    501.86296   -359.62575     91.94267    90.395912    90.245767    359.62575 0.0095612341 
    1140    749437.19    500.61927    156.93506    91.965338    90.308075    90.236966   -156.93506 0.0098101398 
    1160    749387.84      502.378     277.3233    91.988006    90.327698    90.189191    -277.3233  0.010059045 
    1180     749222.8    502.21365   -333.60481    92.010675    90.374191    90.100738    333.60481  0.010307951 
    1200    749278.14    498.85533   -79.210907    92.033343    90.321426    90.137826    79.210907  0.010556857 
    1220    748912.29    500.54381   -234.97031    92.056011    90.331675     90.06141    234.97031  0.010805762 
    1240    749054.64    501.86684   -51.458993     92.07868     90.29981    90.088131    51.458993  0.011054668 
    1260    749252.64     499.7145    149.19821    92.101348    90.302262     90.08732   -149.19821  0.011303574 
    1280    749317.99    500.49156     322.4433    92.124016    90.325928    90.049409    -322.4433  0.011552479 
    1300    750079.88    499.76541   -679.86844    92.146685    90.414515    90.030496    679.86844  0.011801385 
    1320    749886.41    499.61928   -1047.4124    92.169353    90.399439    90.000145    1047.4124   0.01205029 
    1340    750447.11    500.25108   -241.98154    92.192021    90.380411    90.064251    241.98154  0.012299196 
    1360    750532.03    502.92645   -577.84308     92.21469    90.362041    90.070607    577.84308  0.012548102 
    1380    750650.37     502.3801    120.70862    92.237358    90.420404    90.004538   -120.70862  0.012797007 
    1400    750534.16    504.31691    285.63099    92.260026    90.410749    89.978101   -285.63099  0.013045913 
    1420    750597.12    504.48295    226.25164    92.282695    90.435415    89.939008   -226.25164  0.013294819 
    1440    750926.16    504.07773    58.055939    92.305363    90.440205    89.951573   -58.055939  0.013543724 
    1460    751114.63    503.59733   -437.91584    92.328031    90.443368    89.948913    437.91584   0.01379263 
    1480    751698.04    504.22845   -165.52699    92.350699    90.441411     89.99863    165.52699  0.014041535 
    1500    752374.69    502.39043   -32.223984    92.373368    90.531654    89.967768    32.223984  0.014290441 
    1520    751947.25    500.19529   -335.19702    92.396036    90.528244    89.897982    335.19702  0.014539347 
    1540    751821.43    501.68766   -60.906861    92.418704    90.487705    89.901151    60.906861  0.014788252 
    1560    751843.83    500.39022   -610.85333    92.441373    90.447015    89.922219    610.85333  0.015037158 
    1580    751736.22    502.07521   -92.522576    92.464041    90.451823    89.882529    92.522576  0.015286064 
    1600    752012.71    502.46837   -215.57623    92.486709    90.474148    89.871367    215.57623  0.015534969 
    1620    752005.94    500.49293   -288.18073    92.509378    90.463632    89.858982    288.18073  0.015783875 
    1640    752705.09    499.02728   -645.98443    92.532046     90.50869    89.875726    645.98443  0.016032781 
    1660    753124.64    498.57693   -233.22622    92.554714    90.462625    89.949578    233.22622  0.016281686 
    1680    753833.11    500.80297    486.28053    92.577383     90.49118    89.983744   -486.28053  0.016530592 
    1700    753489.03    502.06899    61.388495    92.600051    90.396293    90.015042   -61.388495  0.016779497 
    1720    753754.59    498.82135   -316.65162    92.622719     90.40925    90.011826    316.65162  0.017028403 
    1740    753416.43     500.4113    -124.6939    92.645388    90.383434    89.975122     124.6939  0.017277309 
    1760    753251.88    498.56315   -664.23779    92.668056    90.425812     89.89132    664.23779  0.017526214 
    1780    753402.97    499.30005    57.256438    92.690724    90.446883    89.866421   -57.256438   0.01777512 
    1800    753192.74    500.21549   -245.27361    92.713392    90.442807    89.823427    245.27361  0.018024026 
    1820    752866.58    499.07629   -255.49594    92.736061    90.409338    89.795814    255.49594  0.018272931 
    1840    753083.79    499.89862   -751.41935    92.758729    90.454945    89.754493    751.41935  0.018521837 
    1860    752911.23    498.80801   -610.11971    92.781397     90.43957    89.727255    610.11971  0.018770742 
    1880    753570.81    500.59699   0.89478399    92.804066    90.438636     89.78485  -0.89478399  0.019019648 
    1900     752998.2    496.02612     214.0992    92.826734    90.412151    89.720992    -214.0992  0.019268554 
    1920    752600.33    502.19318    244.89692    92.849402    90.357263    89.706151   -244.89692  0.019517459 
    1940    753123.27    498.79928   -20.193321    92.872071    90.327515     89.77613    20.193321  0.019766365 
    1960    753793.83    499.69108   -675.07382    92.894739    90.302483    89.859038    675.07382  0.020015271 
    1980    753662.91    498.27362    265.47522    92.917407    90.301838    89.822155   -265.47522  0.020264176 
    2000    753432.76    497.25121   -65.150271    92.940076    90.280561    89.793982    65.150271  0.020513082 
    2020    753813.41    498.76941   -570.11594    92.962744    90.352664    89.745765    570.11594  0.020761987 
    2040    753536.83    501.06521   -507.97417    92.985412    90.383963    89.659907    507.97417  0.021010893 
    2060    753644.04    500.04827    495.94113     93.00808    90.372945    89.661738   -495.94113  0.021259799 
    2080    754626.78    501.20151    375.15542    93.030749    90.394262    89.735613   -375.15542  0.021508704 
    2100    754852.48    501.59844   -110.69559    93.053417    90.439179    89.696015    110.69559   0.02175761 
    2120    755368.22    503.10197   -162.67841    93.076085    90.436288    89.738307    162.67841  0.022006516 
    2140    756097.27    500.93833   -572.14426    93.098754    90.455344    89.784129    572.14426  0.022255421 
    2160    757187.69    500.12093   -824.32921    93.121422    90.447758    89.899265    824.32921  0.022504327 
    2180    756675.31    501.06629   -182.48995     93.14409    90.411344    89.852741    182.48995  0.022753233 
    2200    755277.16    501.92875   -225.19157    93.166759    90.312236    89.763292    225.19157  0.023002138 
    2220     755385.4    501.48016   -154.18327    93.189427    90.276495    89.789852    154.18327  0.023251044 
    2240    755959.64    503.79718   -289.23949    93.212095    90.274125    89.838616    289.23949  0.023499949 
    2260    756002.27    502.20308    27.691536    93.234764    90.278734    89.817252   -27.691536  0.023748855 
    2280    754982.58    500.72772    -167.5385    93.257432    90.181916    89.770577     167.5385  0.023997761 
    2300    754624.29    501.57556   -431.25829      93.2801    90.081095    89.806571    431.25829  0.024246666 
    2320    754642.49    501.73601   -136.13067    93.302769    90.088144    89.779893    136.13067  0.024495572 
    2340     754583.3    500.23202   -145.20316    93.325437    90.066136    89.772977    145.20316  0.024744478 
    2360    754952.66    500.31381   -692.12117    93.348105    90.028481    89.832666    692.12117  0.024993383 
    2380    754085.22    499.48561    -218.9033    93.370773    89.951767    89.784171     218.9033  0.025242289 
    2400    753704.26    499.16545   -516.93517    93.393442    89.914699    89.754017    516.93517  0.025491194 
    2420    753600.34    498.25331   -584.74361     93.41611    89.887492    89.747022    584.74361    0.0257401 
    2440    753302.23    498.00984   -137.10743    93.438778    89.805886    89.771256    137.10743  0.025989006 
    2460    753608.61    498.57309   -707.43324    93.461447    89.826559    89.765321    707.43324  0.026237911 
    2480    753978.67    499.33715   -427.58992    93.484115    89.759906    89.854297    427.58992  0.026486817 
    2500     753536.6    499.64382    172.96447    93.506783     89.72125    89.818525   -172.96447  0.026735723 
    2520    752843.36    499.30243    329.86867    93.529452    89.720822    89.714573   -329.86867  0.026984628 
    2540    753450.66    502.54769   -109.10146     93.55212    89.799112    89.686926    109.10146  0.027233534 
    2560    754332.79    499.40754   -659.81037    93.574788    89.882326    89.687069    659.81037  0.027482439 
    2580    754189.46    501.24364   -385.31449    93.597457    89.803025    89.727475    385.31449  0.027731345 
    2600    754039.57    500.56891   -454.64563    93.620125    89.834158    89.656838    454.64563  0.027980251 
    2620     754136.5     499.9856   -283.04579    93.642793    89.869605    89.611299    283.04579  0.028229156 
    2640    754279.35    501.65824    25.032315    93.665462    89.858952    89.617204   -25.032315  0.028478062 
    2660    754956.55    499.91192    -522.0285     93.68813    89.851417     89.68348     522.0285  0.028726968 
    2680    754976.57    502.93449   -415.91969    93.710798    89.843289    89.672276    415.91969  0.028975873 
    2700    754732.37    502.72067    120.46144    93.733466    89.863438    89.601498   -120.46144  0.029224779 
    2720    755265.36    501.06486    85.688438    93.756135    89.920077     89.58663   -85.688438  0.029473685 
    2740    755678.97    500.19395   -247.64911    93.778803    89.972139     89.56217    247.64911   0.02972259 
    2760    756245.85    504.68955   -9.2501434    93.801471    89.960569    89.619219    9.2501434  0.029971496 
    2780    756983.25    502.46167   -325.13188     93.82414    90.012277    89.633413    325.13188  0.030220401 
    2800    756681.78    500.49252   -436.02533    93.846808    89.981618    89.606594    436.02533  0.030469307 
    2820     756238.3    500.40767    82.697623    93.869476    90.048947    89.465508   -82.697623  0.030718213 
    2840    756739.39    501.58573  -0.67958351    93.892145       90.086    89.466363   0.67958351  0.030967118 
    2860    757117.82    501.93257   -411.54166    93.914813    90.163657     89.41242    411.54166  0.031216024 
    2880    757002.56    498.98624   -535.82085    93.937481    90.113703    89.426781    535.82085   0.03146493 
    2900    756191.83    500.22734   -171.23512     93.96015    90.054316    89.368352    171.23512  0.031713835 
    2920    756523.25    499.39621   -188.93988    93.982818    90.098778    89.341844    188.93988  0.031962741 
    2940    756689.19    499.80614   -608.33843    94.005486    90.094023    89.344609    608.33843  0.032211646 
    2960    756837.41    497.84642   -10.925127    94.028154     90.09433    89.340262    10.925127  0.032460552 
    2980    757328.55     499.0571   -449.38431    94.050823    90.142294    89.329133    449.38431  0.032709458 
    3000    757394.41    500.58606   -361.89951    94.073491    90.107595    89.349769    361.89951  0.032958363 
    3020    757009.93    500.24705    286.33168    94.096159    90.086248    89.304055   -286.33168  0.033207269 
    3040     757121.8    498.74532   -130.89524    94.118828    90.089164     89.29285    130.89524  0.033456175 
    3060    757142.81    497.16784   -806.09052    94.141496    90.077923    89.284968    806.09052   0.03370508 
    3080    756929.09    499.01708    -647.7106    94.164164    89.996634    89.318881     647.7106  0.033953986 
    3100    756754.73    497.56056    2.1182945    94.186833    90.002418    89.271077   -2.1182945  0.034202891 
    3120    757323.08    500.98192   -194.54937    94.209501    89.973347    89.345485    194.54937  0.034451797 
    3140    757631.31    499.29359   -489.94713    94.232169    89.956336    89.377245    489.94713  0.034700703 
    3160    757281.41     500.6136   -380.16553    94.254838    89.858034     89.41219    380.16553  0.034949608 
    3180    757473.21    499.51063   -81.515894    94.277506    89.888143    89.383382    81.515894  0.035198514 
    3200     758192.4    498.24032   -526.56898    94.300174     89.93478    89.400358    526.56898   0.03544742 
    3220    757907.73     500.4121   -23.262002    94.322843    89.916761    89.363219    23.262002  0.035696325 
    3240    758140.88    501.59039   -120.27652    94.345511    89.909602    89.376346    120.27652  0.035945231 
    3260    759141.68    500.93325   -286.51939    94.368179    90.005354    89.377647    286.51939  0.036194137 
    3280    759273.45    501.45719    -129.7176    94.390847    90.040168    89.337138     129.7176  0.036443042 
    3300    759787.16    500.60463   -538.90031    94.413516    90.088558     89.32811    538.90031  0.036691948 
    3320    760277.12    502.35579   -980.04486    94.436184    90.216694    89.237333    980.04486  0.036940853 
    3340    759526.99     502.5139   -194.09408    94.458852    90.245551    89.099394    194.09408  0.037189759 
    3360    758465.59    500.45148   -138.37055    94.481521    90.178426    89.019747    138.37055  0.037438665 
    3380     758949.4    501.05305   -530.10744    94.504189     90.14644    89.086764    530.10744   0.03768757 
    3400     759682.6    502.19647    178.11837    94.526857    90.115898    89.181659   -178.11837  0.037936476 
    3420    759449.13    500.44108     50.38842    94.549526    90.086504    89.161959    -50.38842  0.038185382 
    3440    759741.35    503.01179   -454.50837    94.572194    90.096738    89.164757    454.50837  0.038434287 
    3460    760815.76    500.94892   -675.23997    94.594862    90.131062    89.235459    675.23997  0.038683193 
    3480    760834.99    500.94521   -252.51079    94.617531    90.089777     89.25722    252.51079  0.038932098 
    3500    760206.06    501.16678   -47.414237    94.640199    90.011814    89.239302    47.414237  0.039181004 
    3520    759367.62    501.34656   -240.29605    94.662867    89.920839    89.209697    240.29605   0.03942991 
    3540    758933.44    499.90988    108.09822    94.685535    89.867849    89.189905   -108.09822  0.039678815 
    3560    759138.14    500.24808   -649.43595    94.708204    89.870487     89.18999    649.43595  0.039927721 
    3580    758811.31    502.36938   -901.19358    94.730872    89.849353    89.151223    901.19358  0.040176627 
    3600    758759.02     500.7753   -765.63117     94.75354    89.810227     89.16258    765.63117  0.040425532 
    3620    758537.84    499.45274   -520.08332    94.776209    89.792192    89.133168    520.08332  0.040674438 
    3640    758422.94     498.7998   -35.500877    94.798877    89.801355    89.089265    35.500877  0.040923343 
    3660     757882.4    499.43033   -77.813299    94.821545    89.800235    89.005598    77.813299  0.041172249 
    3680    757734.82    501.88259   -159.32202    94.844214    89.781491    88.985571    159.32202  0.041421155 
    3700    757796.51     501.0418   -603.71334    94.866882     89.72011     89.03242    603.71334   0.04167006 
    3720    758050.55    499.20802   -283.91624     94.88955    89.720151     89.04095    283.91624  0.041918966 
    3740    758268.29    500.93399   -94.451929    94.912219    89.760844    89.004885    94.451929  0.042167872 
    3760    758756.49    500.06777   -644.43966    94.934887    89.739777    89.061826    644.43966  0.042416777 
    3780       758918    497.97728   -900.69205    94.957555    89.768386    89.031135    900.69205  0.042665683 
    3800    758359.93     500.7291   -187.63872    94.980224    89.730371    88.982115    187.63872  0.042914589 
    3820     758034.8    499.75888   -70.669668    95.002892    89.690066    88.962704    70.669668  0.043163494 
    3840    757829.95    497.85986   -98.477837     95.02556    89.629111    88.977918    98.477837    0.0434124 
    3860    758781.44    499.62256   -492.95053    95.048228    89.654637    89.043027    492.95053  0.043661305 
    3880    757743.45    498.76199   -159.73989    95.070897    89.567849    88.986158    159.73989  0.043910211 
    3900    757934.75    501.24857   -24.357805    95.093565    89.544965    89.010148    24.357805  0.044159117 
    3920    758387.72    498.78445   -346.37001    95.116233    89.552629    89.034497    346.37001  0.044408022 
    3940    759615.67    500.27715    -1049.632    95.138902    89.623863    89.086546     1049.632  0.044656928 
    3960     759342.2    502.17144   -719.50611     95.16157    89.632227    89.024952    719.50611  0.044905834 
    3980    759458.52    500.73383   -209.46853    95.184238    89.615746    89.033756    209.46853  0.045154739 
    4000    758830.12    502.67882    228.17056    95.206907    89.583096    88.971321   -228.17056  0.045403645 
    4020    759157.53    501.31871   -383.87091    95.229575    89.619123    88.952748    383.87091   0.04565255 
    4040    759317.15     503.0429   -546.95625    95.252243    89.636833    88.932704    546.95625  0.045901456 
    4060    759742.21    504.43803   -444.97593    95.274912    89.595144     89.00271    444.97593  0.046150362 
    4080    759144.71    501.92427   -279.20841     95.29758    89.526446    88.979786    279.20841  0.046399267 
    4100    759252.37    503.79341    -180.8722    95.320248    89.505141    88.992419     180.8722  0.046648173 
    4120    759767.27    502.37179   -311.40417    95.342917    89.554038    88.982986    311.40417  0.046897079 
    4140    760552.99    502.80742   -628.92403    95.365585    89.591852    89.016248    628.92403  0.047145984 
    4160    760960.18    502.52569   -470.47143    95.388253    89.562315    89.072107    470.47143   0.04739489 
    4180    760299.43    500.13604   -175.94999    95.410921    89.494366    89.041175    175.94999  0.047643795 
    4200     760270.1    502.50158   -955.19144     95.43359    89.462105     89.04869    955.19144  0.047892701 
    4220    760070.14    500.01185   -411.38797    95.456258     89.36886    89.096993    411.38797  0.048141607 
    4240    759420.09    500.67214    446.08849    95.478926    89.309008    89.059302   -446.08849  0.048390512 
    4260    759240.61    500.84544    102.06701    95.501595    89.326551    88.999637   -102.06701  0.048639418 
    4280    759950.84     500.3539   -384.53769    95.524263    89.350149     89.03823    384.53769  0.048888324 
    4300    759584.83    499.68982   -276.09694    95.546931    89.275512     89.04862    276.09694  0.049137229 
    4320    759517.63     499.6749   -484.67544      95.5696    89.240617    89.054431    484.67544  0.049386135 
    4340    760017.93    499.75796   -469.04847    95.592268    89.276183    89.056467    469.04847  0.049635041 
    4360    761047.09     500.5104   -557.09139    95.614936    89.312191    89.119973    557.09139  0.049883946 
    4380    761331.69    498.60778   -129.26202    95.637605    89.370461    89.074053    129.26202  0.050132852 
    4400    761844.61    499.52254   -31.927449    95.660273    89.424519    89.059073    31.927449  0.050381757 
    4420    762854.16    499.12839   -327.93773    95.682941    89.566136    89.014992    327.93773  0.050630663 
    4440    763350.79    499.28019   -385.50178    95.705609     89.60723    89.011007    385.50178  0.050879569 
    4460    763404.24    498.10208   -33.070182    95.728278    89.597585    89.005742    33.070182  0.051128474 
    4480    763449.98    500.36668   -391.28599    95.750946     89.55632    89.031005    391.28599   0.05137738 
    4500    763784.19    500.81194   -236.47037    95.773614    89.598604    89.006874    236.47037  0.051626286 
    4520     764146.7    499.52831   -262.09902    95.796283     89.59329    89.033327    262.09902  0.051875191 
    4540    764546.27    497.93096   -359.88438    95.818951    89.592823    89.059272    359.88438  0.052124097 
    4560    764770.01    500.52001   -420.41929    95.841619    89.524448    89.132289    420.41929  0.052373002 
    4580    765426.91    500.85944   -636.20677    95.864288    89.577451    89.134981    636.20677  0.052621908 
    4600    765336.66    502.87821   -796.43335    95.886956    89.536623    89.144032    796.43335  0.052870814 
    4620    765453.65    500.51193   -274.33894    95.909624    89.575872    89.097529    274.33894  0.053119719 
    4640       765465    499.62902    86.132838    95.932293    89.543259    89.110241   -86.132838  0.053368625 
    4660    764956.01    500.80826   0.22808695    95.954961    89.526679    89.046438  -0.22808695  0.053617531 
    4680    764147.86    500.00792    41.282959    95.977629    89.445519    89.012048   -41.282959  0.053866436 
    4700    763941.34    500.89826   -757.78031    96.000298    89.453879    88.958666    757.78031  0.054115342 
    4720    763765.38    501.62905   -493.83235    96.022966    89.434036    88.936907    493.83235  0.054364247 
    4740    763054.01    502.07495   -89.910578    96.045634    89.391175    88.875695    89.910578  0.054613153 
    4760    762523.05    501.23698    -560.0607    96.068302    89.321173    88.862482     560.0607  0.054862059 
    4780    762608.74    504.19942   -727.81385    96.090971    89.340911    88.831873    727.81385  0.055110964 
    4800    761452.05    501.84412   -193.79921    96.113639    89.268049    88.748597    193.79921   0.05535987 
    4820    761191.56    502.02548    240.29401    96.136307    89.281098    88.684354   -240.29401  0.055608776 
    4840    761732.63    501.70916   -127.46439    96.158976    89.269193    88.738303    127.46439  0.055857681 
    4860    762175.56    498.81713   -862.61947    96.181644    89.252135    88.785943    862.61947  0.056106587 
    4880    761719.23    501.53823   -691.59376    96.204312    89.181661    88.781979    691.59376  0.056355493 
    4900    761025.79    500.52218   -432.91065    96.226981    89.097459    88.764068    432.91065  0.056604398 
    4920    761425.35    499.54132    38.274681    96.249649    89.113366    88.773906   -38.274681  0.056853304 
    4940     761408.3    499.76067   -317.15138    96.272317    89.089026    88.775263    317.15138  0.057102209 
    4960    761339.63    499.36088   -795.22913    96.294986      89.0615    88.773789    795.22913  0.057351115 
    4980    760860.46    498.79287    -494.6698    96.317654    88.990939    88.767365     494.6698  0.057600021 
    5000    760555.61    498.99732   -376.68207    96.340322    88.964968    88.736819    376.68207  0.057848926 
    5020    760739.95     499.0952    230.00243    96.362991    88.958503    88.743896   -230.00243  0.058097832 
    5040    761007.27    500.15647   -405.89865    96.385659    89.045762    88.667228    405.89865  0.058346738 
    5060       761593    499.03022     -178.886    96.408327    89.103576    88.657047      178.886  0.058595643 
    5080    761958.56    500.09031   -455.00321    96.430995    89.076521    88.705685    455.00321  0.058844549 
    5100    761310.08    499.03809   -157.27585    96.453664    88.985539    88.699958    157.27585  0.059093454 
    5120     761690.5    499.99292   -2.8077112    96.476332    89.013366    88.695693    2.8077112   0.05934236 
    5140    762389.77    501.49698   -728.71781       96.499    89.049753    88.719998    728.71781  0.059591266 
    5160    762547.19     499.1214   -512.39219    96.521669     89.01002     88.75708    512.39219  0.059840171 
    5180    762659.87    501.10066   -436.29137    96.544337    89.044289    88.715197    436.29137  0.060089077 
    5200    763599.09    501.08086   -481.81514    96.567005    89.107786     88.74032    481.81514  0.060337983 
    5220    764166.25    500.91101   -51.848935    96.589674    89.177193    88.716287    51.848935  0.060586888 
    5240    764018.64    501.84116   -303.60264    96.612342    89.200344    88.655322    303.60264  0.060835794 
    5260    763425.81    502.70273   -584.13472     96.63501    89.164948     88.60091    584.13472    0.0610847 
    5280    763284.98    502.39558    23.206359    96.657679     89.16709    88.561663   -23.206359  0.061333605 
    5300     764072.5    503.24719   -378.32126    96.680347     89.20384    88.595736    378.32126  0.061582511 
    5320    764791.56    502.70243   -304.46908    96.703015    89.263894    88.598678    304.46908  0.061831416 
    5340    764733.57     502.9491   -461.51252    96.725683    89.252929    88.582079    461.51252  0.062080322 
    5360    764394.65    502.41397   -358.28057    96.748352    89.230906    88.543923    358.28057  0.062329228 
    5380    764383.12    500.09989   -312.11726     96.77102    89.258792    88.494191    312.11726  0.062578133 
    5400    765302.48    500.17577   -462.01998    96.793688    89.337518    88.501819    462.01998  0.062827039 
    5420    765946.22    502.16929   -498.02021    96.816357    89.325558    88.567381    498.02021  0.063075945 
    5440    766531.52    500.82842   -597.67007    96.839025    89.309712    88.630035    597.67007   0.06332485 
    5460    767269.87    500.52821   -247.01598    96.861693    89.308964    88.695388    247.01598  0.063573756 
    5480    767207.51    499.76356    -214.0657    96.884362     89.26855    88.707569     214.0657  0.063822661 
    5500     767226.2    500.10395    82.980956     96.90703    89.241274    88.716087   -82.980956  0.064071567 
    5520    768360.74    500.06743   -283.74145    96.929698    89.225518    88.842184    283.74145  0.064320473 
    5540    768690.63    499.40126   -601.33554    96.952367    89.170883    88.913992    601.33554  0.064569378 
    5560    767813.98    499.21196   -355.91507    96.975035    89.043672    88.918681    355.91507  0.064818284 
    5580    767612.51    500.31712    -500.5472    96.997703     89.01152    88.906677     500.5472   0.06506719 
    5600    767497.14    499.70595   -273.41941    97.020372    89.016051    88.868021    273.41941  0.065316095 
    5620    767450.63    500.00286   -519.18686     97.04304    89.011138    88.846782    519.18686  0.065565001 
    5640     767415.8    499.73411   -237.55786    97.065708    89.057688    88.775575    237.55786  0.065813906 
    5660    767268.65    501.41016   -64.687491    97.088376    89.034412    88.761027    64.687491  0.066062812 
    5680    767723.21    497.66916   -284.89843    97.111045     89.02039    88.806868    284.89843  0.066311718 
    5700    767936.21    499.83876   -464.72408    97.133713    88.971968     88.85911    464.72408  0.066560623 
    5720    767049.86    500.10776   -583.89133    97.156381    88.883756    88.823906    583.89133  0.066809529 
    5740    766809.58    502.60126   -838.77681     97.17905    88.929784     88.72942    838.77681  0.067058435 
    5760     766865.9    500.65057   -212.92826    97.201718    89.017262    88.628062    212.92826   0.06730734 
    5780    766976.18    500.22026    189.20717    97.224386     89.04363    88.593898   -189.20717  0.067556246 
    5800    766916.96    500.44473    9.7735357    97.247055    89.017954    88.591954   -9.7735357  0.067805152 
    5820    767449.62     502.1797   -956.78332    97.269723    89.010636    88.640112    956.78332  0.068054057 
    5840    766832.13    500.00643   -457.00771    97.292391     89.00751    88.551265    457.00771  0.068302963 
    5860    766551.46    501.13471    92.647094     97.31506    88.993011    88.512654   -92.647094  0.068551868 
    5880     767530.1    498.50531   -377.41559    97.337728    89.019075    88.579073    377.41559  0.068800774 
    5900    768197.58    499.99104     -359.632    97.360396    89.018358    88.636178      359.632   0.06904968 
    5920     768701.4    500.68732   -366.87365    97.383065    89.028599    88.663465    366.87365  0.069298585 
    5940    769300.22    497.94134   -500.23452    97.405733    89.035569    88.704938    500.23452  0.069547491 
    5960    770334.06    499.68758   -603.23419    97.428401     89.03609    88.802961    603.23419  0.069796397 
    5980    770736.63    498.16425   -100.51013    97.451069    88.979372    88.885323    100.51013  0.070045302 
    6000    770876.89    498.09625   -660.11883    97.473738    88.949824    88.910349    660.11883  0.070294208 
    6020    770961.74     498.4882   -636.10506    97.496406    88.969614    88.879686    636.10506  0.070543113 
    6040    770630.42    498.39342   -107.05162    97.519074    88.991279    88.799215    107.05162  0.070792019 
    6060    770158.52    501.67508    55.816436    97.541743    89.001952    88.713576   -55.816436  0.071040925 
    6080    769929.13    497.86936   -165.25532    97.564411    88.993237    88.675229    165.25532   0.07128983 
    6100    769488.82     498.4896   -783.03177    97.587079    89.034673    88.562696    783.03177  0.071538736 
    6120    769453.44    498.99295   -1086.7985    97.609748    89.060791    88.512093    1086.7985  0.071787642 
    6140    768796.44    497.37051   -230.69427    97.632416    89.002429     88.47396    230.69427  0.072036547 
    6160    768416.55    498.52083   -178.70877    97.655084    88.906636    88.504973    178.70877  0.072285453 
    6180     768357.7    499.43895    41.982021    97.677753    88.935513    88.448928   -41.982021  0.072534358 
    6200    768907.77    499.54683   -364.99424    97.700421     88.97907    88.448395    364.99424  0.072783264 
    6220    769504.22    501.19463   -1045.4499    97.723089    89.051087    88.424904    1045.4499   0.07303217 
    6240    769016.02    501.65458   -619.10206    97.745757    89.024454     88.37474    619.10206  0.073281075 
    6260    768995.11    502.04263   -278.40969    97.768426    89.057589    88.318975    278.40969  0.073529981 
    6280    769529.53    502.28754    196.41817    97.791094    89.105268    88.312586   -196.41817  0.073778887 
    6300    770358.64    503.07793   -270.27137    97.813762    89.193196    88.300115    270.27137  0.074027792 
    6320    771109.54    501.92323   -775.36443    97.836431    89.284931    88.274915    775.36443  0.074276698 
    6340     771003.7    501.19071   -823.57702    97.859099    89.348803    88.179272    823.57702  0.074525604 
    6360    770997.81    500.03222   -495.07368    97.881767    89.335602    88.171204    495.07368  0.074774509 
    6380    770836.43    503.35041    -237.3853    97.904436    89.309878    88.157723     237.3853  0.075023415 
    6400    771677.91    501.52799   -405.93598    97.927104    89.365893    88.178226    405.93598   0.07527232 
    6420    772263.79    499.85198   -696.18698    97.949772    89.373554    88.217189    696.18698  0.075521226 
    6440    772175.19    500.32717   -248.14072    97.972441    89.333648    88.226053    248.14072  0.075770132 
    6460    772977.97    500.03172     -62.6039    97.995109    89.282902    88.347532      62.6039  0.076019037 
    6480    773322.84    500.36049   -239.09841    98.017777    89.199881    88.448752    239.09841  0.076267943 
    6500    773053.03    500.66599    94.381208    98.040446    89.120606    88.476081   -94.381208  0.076516849 
    6520    773563.17    500.67553   -441.60013    98.063114    89.182533    88.452538    441.60013  0.076765754 
    6540    774300.98    500.79856   -324.00134    98.085782    89.216448    88.482792    324.00134   0.07701466 
    6560    773757.03    496.98338   -862.73153     98.10845    89.097134    88.518584    862.73153  0.077263565 
    6580    772918.23    499.84182   -583.12618    98.131119    88.928662    88.569673    583.12618  0.077512471 
    6600    773493.58    500.86099   -446.90888    98.153787    88.984303    88.559724    446.90888  0.077761377 
    6620    773640.03     499.8952    -589.6863    98.176455    89.025263    88.515295     589.6863  0.078010282 
    6640    773413.36    499.78802   -85.482707    98.199124     89.03755    88.456725    85.482707  0.078259188 
    6660    773539.69    498.15945   -344.46161    98.221792    89.008514    88.479609    344.46161  0.078508094 
    6680    773470.66    500.77858   -489.12607     98.24446    89.019441    88.440443    489.12607  0.078756999 
    6700    773113.19    498.40179   -300.07831    98.267129    88.977603    88.420733    300.07831  0.079005905 
    6720    773090.78    500.24492   -212.58088    98.289797    88.952485     88.42274    212.58088   0.07925481 
    6740    773950.41    500.70505    -799.2137    98.312465     88.99183    88.461523     799.2137  0.079503716 
    6760    773519.02    498.84107   -729.78858    98.335134    88.973783    88.409763    729.78858  0.079752622 
    6780    772582.54    500.60678   -468.62598    98.357802    88.868013    88.387449    468.62598  0.080001527 
    6800     773219.8    499.23634   -463.92186     98.38047    88.900008    88.408144    463.92186  0.080250433 
    6820    774734.11    499.40027   -836.97357    98.403139    89.057555    88.404212    836.97357  0.080499339 
    6840     774432.9    501.21729    89.833488    98.425807    89.080574    88.326659   -89.833488  0.080748244 
    6860    774127.66    499.29885    24.276494    98.448475    89.055956    88.295917   -24.276494   0.08099715 
    6880    774375.92    502.85642   -402.51255    98.471143    89.041663    88.318076    402.51255  0.081246056 
    6900    774040.14    499.45299   -566.60224    98.493812    89.019247    88.281686    566.60224  0.081494961 
    6920    772948.76    501.19451   -722.03668     98.51648    88.937161    88.218274    722.03668  0.081743867 
    6940    772973.07    499.25525   -558.79881    98.539148     88.95022    88.187805    558.79881  0.081992772 
    6960    772943.98    501.92492   -458.19856    98.561817    88.944623    88.169753    458.19856  0.082241678 
    6980    772928.03     499.2666   -577.76391    98.584485     88.90044    88.191469    577.76391  0.082490584 
    7000    773248.81    501.35672   -957.71569    98.607153    88.831839    88.275906    957.71569  0.082739489 
    7020    773273.08    501.10226   -325.87765    98.629822    88.826673    88.263521    325.87765  0.082988395 
    7040    772587.78    500.16726    215.46279     98.65249    88.784773    88.206643   -215.46279  0.083237301 
    7060     772073.3    499.93197   -135.18017    98.675158    88.708857    88.203073    135.18017  0.083486206 
    7080    772218.14    502.20199   -136.60101    98.697827     88.65399    88.253944    136.60101  0.083735112 
    7100    772873.76    499.33061   -472.67052    98.720495    88.695465    88.267297    472.67052  0.083984017 
    7120    773214.89    499.68941   -1077.3351    98.743163    88.737685    88.243979    1077.3351  0.084232923 
    7140    773077.38    500.52167   -705.56784    98.765831    88.738728    88.206998    705.56784  0.084481829 
    7160     772743.5    498.25932   -305.92498      98.7885    88.714948      88.1723    305.92498  0.084730734 
    7180    773135.53     498.0773   -450.31562    98.811168    88.675057    88.236469    450.31562   0.08497964 
    7200    774079.43    497.05629   -798.79655    98.833836    88.735941    88.263331    798.79655  0.085228546 
    7220    774613.17    498.74908   -218.42917    98.856505     88.72505    88.314776    218.42917  0.085477451 
    7240    774677.62    499.11026   -220.06364    98.879173    88.762874    88.264249    220.06364  0.085726357 
    7260     774549.4    496.22121   -311.28685    98.901841    88.701008     88.29095    311.28685  0.085975262 
    7280    774565.84    496.39793   -160.08092     98.92451    88.671552    88.301915    160.08092  0.086224168 
    7300    774633.94    496.38628   -573.05417    98.947178    88.658036    88.302907    573.05417  0.086473074 
    7320    774341.34    499.46575   -225.02968    98.969846    88.674409    88.233041    225.02968  0.086721979 
    7340    773748.02    497.87649   -405.42443    98.992515     88.62102    88.198348    405.42443  0.086970885 
    7360    774208.57    498.14378   -756.10349    99.015183     88.72345     88.12878    756.10349  0.087219791 
    7380    774280.01    498.02518   -514.43581    99.037851    88.702527    88.137523    514.43581  0.087468696 
    7400    774231.39    499.95964   -604.98988     99.06052    88.640355    88.173623    604.98988  0.087717602 
    7420    773840.38    499.03568    40.225181    99.083188    88.607137    88.141963   -40.225181  0.087966508 
    7440    773328.89    502.41986    180.22763    99.105856    88.548632    88.121739   -180.22763  0.088215413 
    7460    773457.26    501.29062   -356.80226    99.128524    88.527925    88.136823    356.80226  0.088464319 
    7480    774778.85     502.0965   -664.28168    99.151193    88.600596    88.194838    664.28168  0.088713224 
    7500    774568.52    500.43928   -437.53281    99.173861    88.593315    88.157988    437.53281   0.08896213 
    7520    774180.91    499.64577   -63.250746    99.196529    88.612629    88.074535    63.250746  0.089211036 
    7540    774320.47     501.6139    -199.4187    99.219198    88.630637    88.052392     199.4187  0.089459941 
    7560    775444.09    500.77157   -1008.1575    99.241866    88.754387    88.037103    1008.1575  0.089708847 
    7580    776133.92    498.68284   -1507.1726    99.264534    88.815739    88.034442    1507.1726  0.089957753 
    7600     775807.7    498.27462   -731.07432    99.287203    88.825241    87.967938    731.07432  0.090206658 
    7620    775402.24    500.36232    519.08755    99.309871    88.793856    87.932965   -519.08755  0.090455564 
    7640    775514.16    499.88515    353.46907    99.332539    88.803868    87.915674   -353.46907  0.090704469 
    7660    776065.17    501.37496   -194.13167    99.355208    88.798527    87.963357    194.13167  0.090953375 
    7680    776151.88    497.86719   -217.81932    99.377876     88.80242    87.949263    217.81932  0.091202281 
    7700    777206.51    501.96194    -547.5035    99.400544    88.843656    88.007816     547.5035  0.091451186 
    7720    777418.76    499.89186   -362.69508    99.423213    88.872267    87.983445    362.69508  0.091700092 
    7740    777448.13    498.87537   -293.23249    99.445881    88.846019    87.992702    293.23249  0.091948998 
    7760    777437.47    498.80672    -480.5316    99.468549     88.83849    87.978898     480.5316  0.092197903 
    7780    777752.21    499.95622   -561.33609    99.491217    88.876912    87.956421    561.33609  0.092446809 
    7800    778260.91    499.19934   -614.61305    99.513886    88.946807    87.924756    614.61305  0.092695714 
    7820    778741.99    496.99095   -779.61355    99.536554    88.999558    87.906936    779.61355   0.09294462 
    7840    778199.45    496.61068   -215.65465    99.559222    89.010021    87.815367    215.65465  0.093193526 
    7860    777844.83    499.21469    190.74356    99.581891    88.987966    87.777119   -190.74356  0.093442431 
    7880    777566.81     498.2033      193.347    99.604559    89.005111    87.708878     -193.347  0.093691337 
    7900    778587.68    498.63812    -660.8605    99.627227    89.005286    87.803875     660.8605  0.093940243 
    7920     779068.6    497.72911   -946.85292    99.649896    88.990857    87.852367    946.85292  0.094189148 
    7940     778700.6    496.75565   -504.00131    99.672564    88.915729    87.865075    504.00131  0.094438054 
    7960    778650.74    501.71099   -276.86906    99.695232    88.930283    87.825097    276.86906   0.09468696 
    7980    777842.44    500.06243   -255.39052    99.717901    88.855095    87.788207    255.39052  0.094935865 
    8000    777274.28    499.99309   -402.54599    99.740569      88.7772    87.781098    402.54599  0.095184771 
    8020       776746    499.95158   -856.17794    99.763237    88.668698    87.808824    856.17794  0.095433676 
    8040    776862.95    502.39065    -500.7425    99.785905     88.68633    87.784638     500.7425  0.095682582 
    8060    777160.77     503.2796    164.33145    99.808574    88.693451    87.791297   -164.33145  0.095931488 
    8080    777298.77    501.61287    87.541461    99.831242     88.66169    87.818396   -87.541461  0.096180393 
    8100    776690.69    502.96866    -237.4608     99.85391    88.634062    87.757122     237.4608  0.096429299 
    8120    776416.48    503.72045   -652.66697    99.876579     88.64654    87.693883    652.66697  0.096678205 
    8140    777009.33    501.29984   -411.85734    99.899247      88.6516    87.735921    411.85734   0.09692711 
    8160    777937.24    499.59351   -374.04567    99.921915    88.670257     87.80229    374.04567  0.097176016 
    8180    778403.55    499.84604   -297.08578    99.944584    88.709793    87.795848    297.08578  0.097424921 
    8200    778640.68    502.05177   -653.82935    99.967252    88.774028    87.739147    653.82935  0.097673827 
    8220    778747.98    501.65959   -705.70902     99.98992    88.726413    87.778425    705.70902  0.097922733 
    8240     779154.9    500.30087    -237.8912    100.01259     88.72556    87.805231     237.8912  0.098171638 
    8260    780127.63    499.97035   -254.82286    100.03526    88.726433    87.894064    254.82286  0.098420544 
    8280    780505.18    499.35529    -186.8345    100.05793    88.775375     87.86821     186.8345   0.09866945 
    8300    780891.26    499.63104   -600.38505    100.08059    88.837056    87.830738    600.38505  0.098918355 
    8320    779870.46    499.23124   -517.50286    100.10326    88.801601    87.731074    517.50286  0.099167261 
    8340    779669.35    498.43847   -149.85301    100.12593    88.795967    87.694156    149.85301  0.099416166 
    8360    779524.86    500.43859   -190.54026     100.1486    88.736932    87.716377    190.54026  0.099665072 
    8380    780298.69    499.42673   -739.34432    100.17127    88.744302    87.776293    739.34432  0.099913978 
    8400     780505.3    499.25826   -662.92196    100.19394    88.754817    87.769271    662.92196   0.10016288 
    8420    779705.45    496.92205   -635.74308     100.2166    88.759473    87.654895    635.74308   0.10041179 
    8440    779449.97    498.65864   -320.92324    100.23927    88.703217    87.661918    320.92324   0.10066069 
    8460    780067.98    499.83977   -721.24611    100.26194    88.705511     87.70932    721.24611    0.1009096 
    8480    780118.09     500.6851   -770.53748    100.28461    88.684142    87.716259    770.53748   0.10115851 
    8500    780107.11    500.89806   -184.60112    100.30728    88.795155    87.585563    184.60112   0.10140741 
    8520    780442.45    499.13427   -490.22482    100.32994    88.881042    87.518763    490.22482   0.10165632 
    8540    780360.68    501.15802   -246.80871    100.35261    88.948174    87.423794    246.80871   0.10190522 
    8560    779952.85    502.33583   -340.88254    100.37528    88.938835    87.367546    340.88254   0.10215413 
    8580    780115.13    499.25152   -288.68612    100.39795    88.911161    87.393187    288.68612   0.10240303 
    8600    780421.56    502.09658   -315.53707    100.42062    88.894411     87.42425    315.53707   0.10265194 
    8620    780498.23    500.80893   -473.14143    100.44329    88.874038    87.433145    473.14143   0.10290085 
    8640    780717.91    501.36833   -647.42375    100.46595    88.870917    87.441091    647.42375   0.10314975 
    8660    780302.08    500.70665   -439.74365    100.48862    88.824779    87.420187    439.74365   0.10339866 
    8680    780491.84     504.0791   -443.62693    100.51129    88.727902    87.517178    443.62693   0.10364756 
    8700    779993.71    502.54663   -220.95197    100.53396    88.670958    87.497755    220.95197   0.10389647 
    8720    780473.16      501.204   -604.09561    100.55663    88.608439    87.593561    604.09561   0.10414537 
    8740    780663.95    501.92304   -570.28841     100.5793    88.586461     87.61696    570.28841   0.10439428 
    8760    780135.76     501.6357   -94.474504    100.60196    88.540164    87.583723    94.474504   0.10464318 
    8780     779571.6    502.18113    63.514239    100.62463    88.532039    87.508699   -63.514239   0.10489209 
    8800    780266.92    502.59064   -366.21669     100.6473    88.538337    87.560796    366.21669     0.105141 
    8820     780849.8    501.34398   -553.95855    100.66997    88.591819    87.553588    553.95855    0.1053899 
    8840    780350.73    502.39096   -344.81827    100.69264    88.588256     87.48145    344.81827   0.10563881 
    8860     780175.5    501.21056   -308.03849    100.71531    88.601886    87.428668    308.03849   0.10588771 
    8880    780332.52    502.37635   -441.34863    100.73797    88.585586    87.442674    441.34863   0.10613662 
    8900    780459.55    501.26515    -637.7206    100.76064    88.554937    87.467496     637.7206   0.10638552 
    8920    780364.14    501.64945   -472.52986    100.78331    88.552765    87.439277    472.52986   0.10663443 
    8940    780018.12    498.61378     50.17072    100.80598    88.488601    87.444211    -50.17072   0.10688334 
    8960    780228.13    498.22862   -354.45681    100.82865    88.435798    87.500304    354.45681   0.10713224 
    8980    780593.81    497.96898   -753.18624    100.85132    88.498714    87.459416    753.18624   0.10738115 
    9000    780063.11    501.18564   -675.38476    100.87398    88.502378    87.376697    675.38476   0.10763005 
    9020    779185.77    498.75613   -269.02578    100.89665    88.419122    87.340979    269.02578   0.10787896 
    9040    779059.94    499.48391   -346.20209    100.91932    88.379221    87.346676    346.20209   0.10812786 
    9060    778898.66    499.41555   -560.01429    100.94199    88.406001    87.282535    560.01429   0.10837677 
    9080     778280.3    500.01729   -755.62978    100.96466    88.424637    87.175285    755.62978   0.10862567 
    9100    777462.25    500.05275   -94.253357    100.98733    88.401256    87.087134    94.253357   0.10887458 
    9120     777386.3     500.1047      119.685    101.00999    88.447754    87.013317     -119.685   0.10912349 
    9140    777899.78     501.2947   -206.69904    101.03266    88.458912    87.040275    206.69904   0.10937239 
    9160    778528.26    499.92149   -788.45029    101.05533    88.521327     87.02965    788.45029    0.1096213 
    9180    779163.71    497.35379    -978.2468      101.078    88.524434    87.078096     978.2468    0.1098702 
    9200    780255.31    499.25833   -680.31774    101.10067    88.634487    87.072291    680.31774   0.11011911 
    9220    780359.42     499.1813   -277.04026    101.12334    88.657014    87.042267    277.04026   0.11036801 
    9240    780533.73    500.49753   -65.854246      101.146    88.617974    87.080543    65.854246   0.11061692 
    9260    781155.24    497.98627   -102.46905    101.16867    88.569477    87.178064    102.46905   0.11086583 
    9280    781810.66    499.18903   -19.553365    101.19134    88.568837    87.232294    19.553365   0.11111473 
    9300    782005.61    500.65247   -193.82444    101.21401    88.514326    87.288227    193.82444   0.11136364 
    9320    782531.91    500.03495    -684.7339    101.23668    88.479437     87.36185     684.7339   0.11161254 
    9340    782565.49    501.99003   -334.08112    101.25935    88.373264     87.45098    334.08112   0.11186145 
    9360    782694.94    499.91692     -317.963    101.28201    88.313662    87.504886      317.963   0.11211035 
    9380    783551.19    502.09435   -508.19854    101.30468    88.308844    87.585791    508.19854   0.11235926 
    9400    784232.35    500.16498   -345.53837    101.32735    88.306347    87.644798    345.53837   0.11260816 
    9420    784380.34    502.93044   -527.70604    101.35002    88.287027     87.66091    527.70604   0.11285707 
    9440    784274.51    500.29469   -599.40288    101.37269    88.249731    87.666516    599.40288   0.11310598 
    9460    784035.81    501.45135   -304.86879    101.39536    88.238365    87.631528    304.86879   0.11335488 
    9480    784170.41    503.39692    -130.6837    101.41802    88.254986    87.610479     130.6837   0.11360379 
    9500    784812.36    502.41358   -485.83785    101.44069    88.262145    87.655496    485.83785   0.11385269 
    9520    784080.45    502.55965   -596.33369    101.46336    88.259728    87.556582    596.33369    0.1141016 
    9540    783495.37    501.13189   -518.49668    101.48603    88.212814    87.518224    518.49668    0.1143505 
    9560    783547.79    500.97946   -80.112196     101.5087    88.175042    87.542019    80.112196   0.11459941 
    9580    783640.29    500.30709    188.98358    101.53137    88.179648    87.528235   -188.98358   0.11484832 
    9600    783294.71    500.20996   -229.87121    101.55403    88.201865    87.448073    229.87121   0.11509722 
    9620    783349.21    500.96687   -932.06843     101.5767    88.288172    87.349169    932.06843   0.11534613 
    9640    783075.81    499.78963   -474.26188    101.59937    88.264476    87.322638    474.26188   0.11559503 
    9660    782849.65    498.75187    -242.4136    101.62204    88.223476    87.318505     242.4136   0.11584394 
    9680    782656.53    499.10554   -316.62326    101.64471    88.208906    87.291912    316.62326   0.11609284 
    9700    782583.94    500.37051   -215.51817    101.66738    88.188078    87.284966    215.51817   0.11634175 
    9720     782705.1    500.80679   -499.09098    101.69004    88.160518    87.306303    499.09098   0.11659065 
    9740    782642.47    498.20845   -374.54926    101.71271    88.184269    87.256353    374.54926   0.11683956 
    9760    782706.18    500.00855    -132.5331    101.73538    88.193009    87.235367     132.5331   0.11708847 
    9780    783036.67     499.6447   -243.96563    101.75805    88.210061    87.235893    243.96563   0.11733737 
    9800    782961.88     500.5238   -322.10937    101.78072     88.22369    87.194661    322.10937   0.11758628 
    9820    782879.21    501.64633   -525.74959    101.80339    88.197192     87.19223    525.74959   0.11783518 
    9840    783140.35    499.81169   -239.64238    101.82605    88.187772    87.211212    239.64238   0.11808409 
    9860    782897.23    497.69435   -79.156155    101.84872    88.184911     87.16756    79.156155   0.11833299 
    9880    783192.71     501.6706   -385.43631    101.87139    88.211376    87.154899    385.43631    0.1185819 
    9900    783795.93    499.43839   -629.01455    101.89406    88.259187    87.155384    629.01455   0.11883081 
    9920    783716.91    499.15338   -479.04298    101.91673    88.198633    87.187032    479.04298   0.11907971 
    9940    783073.28    501.10302   -429.75307     101.9394     88.11643     87.17731    429.75307   0.11932862 
    9960    783770.16    498.69758   -77.085289    101.96206    88.193364    87.159394    77.085289   0.11957752 
    9980    785258.66    501.44278   -361.20057    101.98473     88.30702    87.193146    361.20057   0.11982643 
   10000    786203.28    500.79984   -585.89718     102.0074    88.353714    87.232508    585.89718   0.12007533 
   10020     786151.7    502.19524   -460.77518    102.03007    88.317918    87.242752    460.77518   0.12032424 
   10040    786134.36    503.87117   -87.189676    102.05274     88.32676    87.212719    87.189676   0.12057315 
   10060    785651.26    500.89737   -146.75768     102.0754    88.332944    87.133668    146.75768   0.12082205 
   10080    786214.31    501.44077   -265.17328    102.09807    88.330012    87.179647    265.17328   0.12107096 
   10100    787777.61    500.07462   -941.31006    102.12074    88.376098    87.288062    941.31006   0.12131986 
   10120    788064.85    500.73208   -722.73353    102.14341    88.418798     87.25835    722.73353   0.12156877 
   10140    786552.81    499.96811   -43.383317    102.16608     88.31284    87.176076    43.383317   0.12181767 
   10160    786516.14    500.98647   -306.28572    102.18875    88.207667    87.256589    306.28572   0.12206658 
   10180    787722.11    499.33899   -243.32888    102.21141    88.218023    87.360742    243.32888   0.12231548 
   10200    788620.07    497.22752   -703.31728    102.23408     88.27074    87.388715    703.31728   0.12256439 
   10220    788381.55     498.3971    -470.2561    102.25675    88.222439    87.390737     470.2561    0.1228133 
   10240     786996.7    498.85916   -160.96398    102.27942     88.12441    87.314915    160.96398    0.1230622 
   10260    786094.53    498.56155   -372.89906    102.30209    88.094703    87.224901    372.89906   0.12331111 
   10280    786297.31    499.52609   -577.54503    102.32476    88.094309    87.228462    577.54503   0.12356001 
   10300    787443.86    498.32724   -228.43465    102.34742    88.122251    87.308615    228.43465   0.12380892 
   10320    787611.99     498.7857    160.24495    102.37009    88.118692    87.311447   -160.24495   0.12405782 
   10340    786884.25    500.05521    129.24864    102.39276    88.075433    87.254294   -129.24864   0.12430673 
   10360    786907.21    499.35766   -496.95049    102.41543    88.068212     87.24468    496.95049   0.12455564 
   10380    787292.23    500.05453   -1028.3042     102.4381    88.085876    87.250552    1028.3042   0.12480454 
   10400    787881.94    500.88321   -770.34473    102.46077    88.136654    87.246294    770.34473   0.12505345 
   10420    788238.98    501.13423     110.9994    102.48343    88.153033     87.25031    -110.9994   0.12530235 
   10440     789294.2    502.03172  -0.26781015     102.5061    88.212513    87.288894   0.26781015   0.12555126 
   10460    788866.03    501.93406   -239.78817    102.52877    88.196906    87.237689    239.78817   0.12580016 
   10480       788839    502.14099   -871.44969    102.55144    88.198584    87.213758    871.44969   0.12604907 
   10500    788796.82    503.39702   -422.52047    102.57411    88.188874    87.199423    422.52047   0.12629797 
   10520    788979.97    503.10601    141.60126    102.59678    88.217496    87.172105   -141.60126   0.12654688 
   10540    789172.86    503.10427     347.0726    102.61944    88.214033     87.17758    -347.0726   0.12679579 
   10560    789675.28    501.02476   -634.89483    102.64211    88.234308    87.193773    634.89483   0.12704469 
   10580    789454.34    502.13548   -725.85333    102.66478    88.196144    87.187843    725.85333    0.1272936 
   10600     789647.3     501.7114   -761.19555    102.68745    88.195388    87.190649    761.19555    0.1275425 
   10620     789137.6    501.30908    -267.8653    102.71012    88.198419    87.112146     267.8653   0.12779141 
   10640    789655.21    501.95081    -443.5589    102.73279    88.189073    87.159286     443.5589   0.12804031 
   10660    790025.45    499.36168   -969.71179    102.75545    88.190589    87.179415    969.71179   0.12828922 
   10680     790005.4    500.27277    -845.3547    102.77812    88.203549    87.145169     845.3547   0.12853813 
   10700     789384.1    501.21182    146.34722    102.80079    88.159912    87.100525   -146.34722   0.12878703 
   10720    789463.39    501.86677    288.73705    102.82346    88.156653    87.093288   -288.73705   0.12903594 
   10740    790237.54    500.50969   -230.06576    102.84613    88.150698    87.165366    230.06576   0.12928484 
   10760    790678.75    502.38792    -943.7443     102.8688    88.169633    87.176088     943.7443   0.12953375 
   10780    790688.03    501.35988   -1009.3018    102.89146    88.192729    87.135081    1009.3018   0.12978265 
   10800    790096.99    500.45273    -439.7746    102.91413    88.171195    87.072029     439.7746   0.13003156 
   10820    790060.53    499.35567   -367.19901     102.9368    88.133828    87.085744    367.19901   0.13028046 
   10840    791167.74    499.26918   -682.93986    102.95947    88.156776    87.165891    682.93986   0.13052937 
   10860    791275.68     500.2665   -909.35716    102.98214    88.142962    87.172254    909.35716   0.13077828 
   10880    790384.38     498.7505   -60.665275    103.00481     88.11518    87.082348    60.665275   0.13102718 
   10900    790437.25    499.44911     222.9602    103.02747    88.049455    87.134005    -222.9602   0.13127609 
   10920    791444.44    499.03886   -121.57394    103.05014    88.077109    87.198454    121.57394   0.13152499 
   10940     791113.8    497.92062   -588.45993    103.07281    88.030625    87.188872    588.45993    0.1317739 
   10960    790218.47     498.5381   -604.28498    103.09548    87.970005    87.131049    604.28498    0.1320228 
   10980    790539.78     498.7919   -462.69482    103.11815    87.924394    87.192523    462.69482   0.13227171 
   11000     790749.3    499.71834   -447.13051    103.14082    87.892515     87.22809    447.13051   0.13252062 
   11020    790289.43    498.52419   -111.30531    103.16348    87.866895     87.18362    111.30531   0.13276952 
   11040    791250.65    498.07598   -635.05986    103.18615    87.936348    87.201557    635.05986   0.13301843 
   11060    791557.98    498.69922    -716.7005    103.20882    87.955308    87.197466     716.7005   0.13326733 
   11080    790453.86    499.70066    -80.77266    103.23149    87.909447    87.102132     80.77266   0.13351624 
   11100    789793.86    499.47767   -91.699312    103.25416    87.865128    87.054186    91.699312   0.13376514 
   11120    790487.69    500.04533   -195.11249    103.27683    87.865303    87.111365    195.11249   0.13401405 
   11140    790262.15    497.74972    -416.7944    103.29949    87.853515    87.079083     416.7944   0.13426295 
   11160    789956.67    501.49183   -438.66983    103.32216    87.831113    87.048521    438.66983   0.13451186 
   11180    790804.25    502.57066   -192.48488    103.34483     87.83102    87.122899    192.48488   0.13476077 
   11200    791079.72     499.7117   -329.38408     103.3675    87.789053    87.175788    329.38408   0.13500967 
   11220    791124.91    501.43963   -470.38741    103.39017    87.794295    87.156449    470.38741   0.13525858 
   11240    791756.68    501.16097    -1000.283    103.41284    87.840331    87.161226     1000.283   0.13550748 
   11260    791873.88    501.48884   -651.03752     103.4355    87.830168    87.165107    651.03752   0.13575639 
   11280    791242.83    502.35764   -224.66347    103.45817    87.761058    87.145133    224.66347   0.13600529 
   11300    790827.05    503.07301   -661.13846    103.48084    87.767336    87.074032    661.13846    0.1362542 
   11320    791435.58    501.73613   -203.55478    103.50351    87.840258    87.049623    203.55478   0.13650311 
   11340    790699.79    500.82207    -308.5686    103.52618    87.772888     87.01639     308.5686   0.13675201 
   11360    790308.96    501.15828    -263.8712    103.54885    87.739126    86.987799     263.8712   0.13700092 
   11380    789929.67    500.77282   -558.95512    103.57151    87.707015    86.958848    558.95512   0.13724982 
   11400     790683.9    499.69951   -298.62002    103.59418    87.765208    86.965129    298.62002   0.13749873 
   11420    790858.11    500.13755   -347.02948    103.61685    87.675907    87.053837    347.02948   0.13774763 
   11440     790456.7    499.46888   -762.38256    103.63952     87.67153    86.994965    762.38256   0.13799654 
   11460    789645.21    500.83439   -439.96827    103.66219    87.654359    86.903671    439.96827   0.13824544 
   11480    788950.91    501.95861   -196.66806    103.68486    87.669583    86.793203    196.66806   0.13849435 
   11500    789772.91    500.15877   -592.22697    103.70752    87.705794    86.828778    592.22697   0.13874326 
   11520     790663.2    498.78248   -648.82016    103.73019    87.771974    86.842132    648.82016   0.13899216 
   11540     790318.9    499.88556   -330.46098    103.75286    87.714782    86.841938    330.46098   0.13924107 
   11560    789167.98    500.19198   -341.52804    103.77553    87.599798    86.810328    341.52804   0.13948997 
   11580    788654.04    499.27415   -12.090111     103.7982    87.526906    86.807079    12.090111   0.13973888 
   11600     788967.5    499.80324    -437.4872    103.82086    87.526721    86.822806     437.4872   0.13998778 
   11620    789831.91    501.18714   -758.99487    103.84353    87.509176    86.916379    758.99487   0.14023669 
   11640    789974.28    500.82207   -409.96018     103.8662    87.453205    86.968699    409.96018    0.1404856 
   11660    790108.73    500.89868   -526.06095    103.88887    87.442387    86.975279    526.06095    0.1407345 
   11680    790634.51    498.00118   -537.04806    103.91154    87.470967     86.98574    537.04806   0.14098341 
   11700    791544.18     499.6692   -382.26671    103.93421     87.50264    87.035314    382.26671   0.14123231 
   11720    791639.57    500.22443    102.87987    103.95687     87.48523     87.04414   -102.87987   0.14148122 
   11740    792160.06    500.20331     -312.411    103.97954    87.543046    87.024869      312.411   0.14173012 
   11760    792469.49    500.55062   -451.81891    104.00221    87.546412    87.036542    451.81891   0.14197903 
   11780    792502.57    498.43141   -59.668771    104.02488    87.546675    87.020946    59.668771   0.14222793 
   11800    792993.29    499.05333   -709.88679    104.04755    87.577854    87.024866    709.88679   0.14247684 
   11820    792020.83    497.45427   -424.21109    104.07022    87.595052    86.882153    424.21109   0.14272575 
   11840    791530.72    499.21853   -615.59408    104.09288     87.55431    86.849876    615.59408   0.14297465 
   11860     791295.7    498.36679   -735.59741    104.11555    87.479327     86.87959    735.59741   0.14322356 
   11880    792229.11    495.09542   -674.32247    104.13822    87.525417    86.917345    674.32247   0.14347246 
   11900    792495.16    497.55645   -334.51574    104.16089    87.537803    86.915312    334.51574   0.14372137 
   11920    792639.31     497.4683   -245.63751    104.18356    87.588279    86.862122    245.63751   0.14397027 
   11940    791590.09    497.11619    7.3274759    104.20623    87.538973     86.77712   -7.3274759   0.14421918 
   11960    790904.78    498.25703   -298.82142    104.22889    87.494621    86.727078    298.82142   0.14446809 
   11980    791523.69    499.30504   -62.627411    104.25156    87.535975    86.735077    62.627411   0.14471699 
   12000    793627.94    497.27824   -1037.8535    104.27423    87.696509    86.787593    1037.8535    0.1449659 
   12020    793546.72       499.34   -589.79833     104.2969    87.681235    86.774965    589.79833    0.1452148 
   12040    792282.61    500.04458   -101.02244    104.31957    87.607302    86.691005    101.02244   0.14546371 
   12060    791945.77    499.57164   -428.64708    104.34224    87.592727    86.649738    428.64708   0.14571261 
   12080    792611.26    499.92782    -604.5276     104.3649     87.61344    86.683218     604.5276   0.14596152 
   12100    792500.62    499.32495   -408.27569    104.38757     87.62134    86.644484    408.27569   0.14621042 
   12120    792725.96    500.37654    189.47246    104.41024    87.558299    86.712691   -189.47246   0.14645933 
   12140    792682.63    501.86683    114.84596    104.43291    87.503138     86.74378   -114.84596   0.14670824 
   12160    792428.01    501.58961   -148.01369    104.45558    87.474821    86.725162    148.01369   0.14695714 
   12180    793202.77    501.07022   -455.84445    104.47825    87.518121    86.748178    455.84445   0.14720605 
   12200    793636.48    498.78607    -812.6892    104.50091    87.508443     86.78638     812.6892   0.14745495 
   12220    793845.51    501.61825   -627.12489    104.52358    87.504674    86.794149    627.12489   0.14770386 
   12240     793279.5    500.87886   -9.4955372    104.54625    87.451793    86.765895    9.4955372   0.14795276 
   12260    793207.72    502.74241   -362.24534    104.56892    87.433918     86.75697    362.24534   0.14820167 
   12280    793167.73    499.72129   -301.58127    104.59159    87.482413    86.685714    301.58127   0.14845058 
   12300    793913.89    497.92247   -674.69664    104.61426    87.533334    86.697996    674.69664   0.14869948 
   12320    793276.54    500.14496   -510.97505    104.63692    87.464067    86.678219    510.97505   0.14894839 
   12340    792459.52    498.80728    46.312353    104.65959     87.37326    86.660165   -46.312353   0.14919729 
   12360    792595.26    500.25204   -291.75364    104.68226    87.354989    86.674364    291.75364    0.1494462 
   12380    793100.23    499.77245   -840.78455    104.70493    87.358268    86.707554    840.78455    0.1496951 
   12400    793203.89    500.73721   -503.44503     104.7276    87.270121    86.787688    503.44503   0.14994401 
   12420    792978.52    497.66069   -178.37534    104.75027    87.186199     86.82775    178.37534   0.15019291 
   12440    793125.04     498.3643    225.53118    104.77293    87.161437    86.849671   -225.53118   0.15044182 
   12460    793919.07    495.72934    -486.8462     104.7956    87.166608    86.912657     486.8462   0.15069073 
   12480    794777.01    498.75908   -569.56429    104.81827    87.163627    86.990737    569.56429   0.15093963 
   12500    794856.03    498.00893   -726.96047    104.84094    87.102268    87.041849    726.96047   0.15118854 
   12520    794520.34    495.74427   -276.37322    104.86361    87.097327    86.991216    276.37322   0.15143744 
   12540    794416.37    497.60458   -98.324931    104.88628    87.140844    86.917606    98.324931   0.15168635 
   12560    795252.39     498.6614   -765.57897    104.90894    87.266158    86.865357    765.57897   0.15193525 
   12580    795437.81    500.57329   -962.09194    104.93161     87.30095    86.832223    962.09194   0.15218416 
   12600    794637.46    500.86558    -152.2315    104.95428    87.237627    86.789069     152.2315   0.15243307 
   12620    793394.39    500.38665    303.66787    104.97695    87.153175    86.718542   -303.66787   0.15268197 
   12640    793398.88    500.41219   -198.70211    104.99962    87.188654     86.66503    198.70211   0.15293088 
   12660    793631.97    502.55027   -434.70801    105.02229    87.277003    86.584043    434.70801   0.15317978 
   12680    794155.43    503.17034    -398.9658    105.04495    87.292161    86.607414     398.9658   0.15342869 
   12700    794398.14    501.45398   -236.57808    105.06762     87.32081    86.586774    236.57808   0.15367759 
   12720    793545.56    502.32655   -300.22563    105.09029    87.285916    86.509758    300.22563    0.1539265 
   12740    793406.42    501.28319   -624.74639    105.11296     87.28779     86.47408    624.74639   0.15417541 
   12760    793679.51    502.03105   -880.31432    105.13563    87.252054    86.520615    880.31432   0.15442431 
   12780    794310.07    500.96934   -720.70815     105.1583    87.259245    86.563554    720.70815   0.15467322 
   12800    793765.27    500.12053   -93.898464    105.18096    87.265992    86.478853    93.898464   0.15492212 
   12820    793802.13    500.03873   -468.36414    105.20363    87.284749    86.445652    468.36414   0.15517103 
   12840    793401.97    500.08163   -529.16662     105.2263    87.241416    86.426368    529.16662   0.15541993 
   12860    793403.71    501.47715   -359.54342    105.24897    87.246303    86.403103    359.54342   0.15566884 
   12880    793958.34    500.34441    80.575962    105.27164    87.239578     86.45155   -80.575962   0.15591774 
   12900    794697.17    498.88186   -367.89775    105.29431    87.210089    86.542623    367.89775   0.15616665 
   12920     793948.1    499.96324   -253.23494    105.31697    87.206727    86.445772    253.23494   0.15641556 
   12940    793847.39    499.84359    -389.6145    105.33964    87.201653    86.421235     389.6145   0.15666446 
   12960    794762.14    500.56226   -825.88394    105.36231    87.227157    86.476911    825.88394   0.15691337 
   12980    795650.42     497.7368   -456.29529    105.38498    87.204821    86.577111    456.29529   0.15716227 
   13000    795422.11    498.90301   -881.82524    105.40765    87.207463    86.531033    881.82524   0.15741118 
   13020    794997.73    499.14326   -232.15665    105.43031    87.205809    86.467912    232.15665   0.15766008 
[...]
   76740    1126895.8    499.58461    123.20357    177.65155    81.057422    78.256779   -123.20357   0.95067342 
   76760      1125958    499.64388    180.50133    177.67422    81.042873    78.195709   -180.50133   0.95092233 
   76780    1126038.7    496.77083   -44.944386    177.69689    80.995977    78.236615    44.944386   0.95117123 
   76800    1126232.9    500.93143   -600.82927    177.71956    80.969276    78.265927    600.82927   0.95142014 
   76820    1125097.5    499.41499   -285.18619    177.74223     80.88615    78.257392    285.18619   0.95166904 
   76840    1124340.3    499.51558    54.625445     177.7649    80.906495    78.175092   -54.625445   0.95191795 
   76860    1124656.4    500.22327    228.76794    177.78756    80.942405    78.152413   -228.76794   0.95216685 
   76880    1126024.8     501.9009   -172.75969    177.81023    81.040982     78.14236    172.75969   0.95241576 
   76900      1126580    502.19653   -519.10506     177.8329    81.060984    78.151631    519.10506   0.95266467 
   76920    1126271.9    499.33337   -166.45709    177.85557    81.051937    78.129021    166.45709   0.95291357 
   76940    1125423.5    499.00958    214.83758    177.87824    81.043854    78.068004   -214.83758   0.95316248 
   76960    1125909.1    503.49027    223.13385    177.90091    81.072352    78.064288   -223.13385   0.95341138 
   76980    1125649.2    501.45102    28.322594    177.92357    81.044182    78.063447   -28.322594   0.95366029 
   77000    1125019.8    500.38344   -143.22751    177.94624    81.011749    78.041093    143.22751   0.95390919 
   77020    1124117.6    500.75241    -252.5474    177.96891    80.961543    78.016923     252.5474    0.9541581 
   77040    1123282.4    500.35968   -210.39287    177.99158    80.939539    77.970224    210.39287     0.954407 
   77060    1123460.3    499.35104   -145.99961    178.01425    80.886459    78.023811    145.99961   0.95465591 
   77080    1123683.6    499.18749   -289.31857    178.03692    80.843635    78.070713    289.31857   0.95490482 
   77100    1123984.1    497.21762   -366.45449    178.05958    80.814503    78.109798    366.45449   0.95515372 
   77120      1123460    499.21265    -21.22918    178.08225    80.775226    78.101393     21.22918   0.95540263 
   77140      1122841    498.13226    239.67362    178.10492    80.747122     78.07559   -239.67362   0.95565153 
   77160    1123660.4    497.03927    176.43798    178.12759    80.777717    78.093034   -176.43798   0.95590044 
   77180    1124817.1    497.76293   -88.546916    178.15026    80.800806    78.141143    88.546916   0.95614934 
   77200    1125273.2      500.239    76.449432    178.17293    80.827601    78.136969   -76.449432   0.95639825 
   77220    1124915.3    497.38451    93.603401    178.19559    80.882895     78.04879   -93.603401   0.95664716 
   77240    1125335.9    496.74875    40.249872    178.21826    80.917464    78.034693   -40.249872   0.95689606 
   77260    1126513.5    496.81659   -178.07822    178.24093    80.958804    78.066532    178.07822   0.95714497 
   77280    1127033.7    497.39751   -510.19237     178.2636    80.950325    78.100825    510.19237   0.95739387 
   77300    1127764.7    498.02855   -350.98339    178.28627    80.946346    78.145391    350.98339   0.95764278 
   77320    1126582.9    497.02794    23.057577    178.30894    80.846103    78.150355   -23.057577   0.95789168 
   77340    1125132.8    500.72881    230.73375     178.3316    80.816725    78.068209   -230.73375   0.95814059 
   77360    1126121.2    499.94741   -155.92289    178.35427    80.892806    78.053378    155.92289   0.95838949 
   77380    1126602.4     500.2188   -94.723604    178.37694    80.924468    78.046265    94.723604    0.9586384 
   77400    1126054.2    502.35532    304.03545    178.39961    80.892452    78.029242   -304.03545   0.95888731 
   77420    1125680.3    499.62955   -51.021957    178.42228      80.8236    78.059862    51.021957   0.95913621 
   77440    1126717.2    500.92719   -594.31677    178.44495    80.853445     78.09301    594.31677   0.95938512 
   77460    1128366.4    503.02112   -37.689053    178.46761    80.920509    78.132572    37.689053   0.95963402 
   77480    1128994.5    500.70037    -106.9726    178.49028    80.980861    78.107882     106.9726   0.95988293 
   77500    1129418.5    501.63425   -78.451061    178.51295    81.062488    78.048622    78.451061   0.96013183 
   77520      1129121    499.97373   -59.571863    178.53562    81.039696    78.040099    59.571863   0.96038074 
   77540    1129558.9    500.42239   -286.10516    178.55829     81.08147    78.020239    286.10516   0.96062965 
   77560    1129372.2    501.35201     207.0052    178.58095    81.088741    77.990447    -207.0052   0.96087855 
   77580    1129621.9    501.65717    40.125146    178.60362    81.151799     77.93718   -40.125146   0.96112746 
   77600    1128865.3    500.43717    71.813548    178.62629    81.092516    77.932028   -71.813548   0.96137636 
   77620    1129449.6    500.01729   -336.65158    178.64896    81.049528    78.003818    336.65158   0.96162527 
   77640    1129740.3    497.82546   -363.19395    178.67163    81.022505    78.040014    363.19395   0.96187417 
   77660    1129742.7    498.81715   -480.60719     178.6943    81.015769    78.036769    480.60719   0.96212308 
   77680    1129112.8    499.71586    282.90713    178.71696    80.985238    78.012768   -282.90713   0.96237198 
   77700    1129285.2    499.74568    240.91959    178.73963    81.002118    77.998527   -240.91959   0.96262089 
   77720    1128650.5    496.22288    242.09145     178.7623    81.026669    77.921184   -242.09145    0.9628698 
   77740    1129510.5    498.70524    17.687603    178.78497    81.084269    77.915282   -17.687603    0.9631187 
   77760    1129934.7    499.18643    24.502011    178.80764    81.059439    77.958536   -24.502011   0.96336761 
   77780    1129991.2    499.23742   -278.51974    178.83031    81.044806    77.966626    278.51974   0.96361651 
   77800    1129714.2    499.46192   -15.641022    178.85297    81.044633    77.937802    15.641022   0.96386542 
   77820    1130157.1    498.27662   -121.50828    178.87564    81.041333    77.961653    121.50828   0.96411432 
   77840    1130850.9    499.00205    6.1046334    178.89831    81.046971      77.9942   -6.1046334   0.96436323 
   77860    1131690.3    501.18443   -409.29589    178.92098     81.05917    78.030464    409.29589   0.96461214 
   77880    1131094.1    500.97651   -116.83103    178.94365    81.035224    78.002515    116.83103   0.96486104 
   77900    1130432.5    501.97805    222.70534    178.96632    81.006907    77.974261   -222.70534   0.96510995 
   77920    1130627.1    501.22421    208.61113    178.98898    81.010512    77.974338   -208.61113   0.96535885 
   77940      1131117    503.37849    105.21021    179.01165    81.020612    77.988525   -105.21021   0.96560776 
   77960      1131084    501.63714   -33.422344    179.03432    80.981551    78.013991    33.422344   0.96585666 
   77980    1130709.4    501.45139   -140.66524    179.05699    80.957094    78.001834    140.66524   0.96610557 
   78000    1130898.9    501.19233    96.739321    179.07966     80.99981    77.963894   -96.739321   0.96635447 
   78020    1131363.1    502.48785    202.70912    179.10233    80.965867    78.018718   -202.70912   0.96660338 
   78040    1131693.8     502.5792    13.425891    179.12499    80.911869    78.083722   -13.425891   0.96685229 
   78060    1132501.6    501.26828   -689.29242    179.14766    80.946239      78.0964    689.29242   0.96710119 
   78080    1131190.3    501.94704   -183.78632    179.17033    80.974151    77.969215    183.78632    0.9673501 
   78100      1130543    500.03514    46.556629      179.193    80.961586    77.926835   -46.556629     0.967599 
   78120    1130208.7    499.89477   -3.0971239    179.21567    80.943522    77.911319    3.0971239   0.96784791 
   78140    1130709.7    499.98756    209.88183    179.23834    80.950689    77.929101   -209.88183   0.96809681 
   78160    1130668.1    501.19965    203.25496      179.261    80.937355    77.929214   -203.25496   0.96834572 
   78180    1129977.6    502.20413   -262.40688    179.28367     80.90037     77.90738    262.40688   0.96859463 
   78200    1128923.6    499.44123   -154.84503    179.30634    80.838883    77.884062    154.84503   0.96884353 
   78220    1128973.3    501.25349   -265.72245    179.32901     80.84123    77.875383    265.72245   0.96909244 
   78240      1128353    500.09693    5.9633171    179.35168    80.824529    77.838838   -5.9633171   0.96934134 
   78260    1127786.1    499.33103    65.051675    179.37435    80.847706    77.767601   -65.051675   0.96959025 
   78280    1127733.6    502.63048    98.498089    179.39701    80.851576    77.750436   -98.498089   0.96983915 
   78300    1128574.2    500.77271    31.594432    179.41968    80.905213    77.746981   -31.594432   0.97008806 
   78320    1129536.7    498.08919   -52.874671    179.44235    80.925041    77.784391    52.874671   0.97033696 
   78340    1130088.1    499.63916   -150.90397    179.46502    80.993509    77.746754    150.90397   0.97058587 
   78360    1129891.8    499.77091   -387.80334    179.48769    80.963676     77.75207    387.80334   0.97083478 
   78380      1129994    500.01083   -258.68136    179.51036    80.953309    77.759246    258.68136   0.97108368 
   78400    1131275.3    497.59299   -557.50234    179.53302    80.957548     77.83351    557.50234   0.97133259 
   78420    1131344.6     499.8484   -156.76879    179.55569    80.948758    77.836899    156.76879   0.97158149 
   78440    1131259.6    498.29743    136.75919    179.57836    80.937668    77.831894   -136.75919    0.9718304 
   78460    1132010.3      499.283    54.657553    179.60103    80.908241    77.902036   -54.657553    0.9720793 
   78480    1132952.2    501.14151   -285.66844     179.6237     80.89323    77.971483    285.66844   0.97232821 
   78500    1132354.2    499.86203   -53.955056    179.64637    80.843198    77.968718    53.955056   0.97257712 
   78520      1131520    498.50366    232.39022    179.66903    80.866252    77.879236   -232.39022   0.97282602 
   78540    1131528.3    500.53955   -8.7273114     179.6917    80.943159    77.795997    8.7273114   0.97307493 
   78560    1131727.6    501.28977    -127.5237    179.71437    80.918239    77.823844     127.5237   0.97332383 
   78580    1131475.7    501.76751   -54.119225    179.73704    80.856673    77.855947    54.119225   0.97357274 
   78600    1131126.2    500.01979   -138.96192    179.75971    80.780643    77.895324    138.96192   0.97382164 
   78620    1132371.3    500.70362   -396.19181    179.78238    80.831598     77.92209    396.19181   0.97407055 
   78640    1132154.1    502.39967   -259.41661    179.80504    80.793577    77.933977    259.41661   0.97431945 
   78660    1131593.9    502.02709    179.23767    179.82771    80.787181    77.891761   -179.23767   0.97456836 
   78680    1132269.7    500.35328    161.56161    179.85038    80.766356    77.948546   -161.56161   0.97481727 
   78700      1133848    501.18376   -266.50149    179.87305    80.826372    77.989414    266.50149   0.97506617 
   78720    1133957.1    500.85758   -153.09556    179.89572    80.811111    78.001816    153.09556   0.97531508 
   78740    1133425.2    501.31671   -43.695339    179.91839    80.789223     77.97653    43.695339   0.97556398 
   78760    1133661.1    502.76261    16.947616    179.94105     80.77943    77.992382   -16.947616   0.97581289 
   78780    1133790.3    502.17366   -30.971942    179.96372    80.803839    77.967889    30.971942   0.97606179 
   78800    1133395.7    499.92953   -318.27338    179.98639     80.84175    77.894393    318.27338    0.9763107 
   78820    1134458.2     499.6912   -387.15316    180.00906    80.917406    77.884707    387.15316   0.97655961 
   78840    1135427.5    500.25025   -158.62559    180.03173    80.971013    77.889835    158.62559   0.97680851 
   78860    1136021.2     499.8574   -14.679634     180.0544    80.964421    77.927099    14.679634   0.97705742 
   78880    1135666.2    499.28689    139.75347    180.07706    80.958041     77.89908   -139.75347   0.97730632 
   78900    1136284.7    498.87761   -55.215583    180.09973    80.952153    77.937358    55.215583   0.97755523 
   78920      1137348    500.56756   -117.82682     180.1224    80.936296    78.015756    117.82682   0.97780413 
   78940    1137904.8    500.29283   -75.941062    180.14507    80.938176    78.042316    75.941062   0.97805304 
   78960      1137585    498.42777    97.759881    180.16774    80.921322    78.026813   -97.759881   0.97830195 
   78980    1138259.8    498.58071   -87.916637    180.19041    80.921401    78.063202    87.916637   0.97855085 
   79000    1139460.1    501.09922   -380.76742    180.21307     80.95928     78.09913    380.76742   0.97879976 
   79020    1138922.1    498.70661    -184.0106    180.23574    80.985596    78.027075     184.0106   0.97904866 
   79040    1139725.5    498.15354    156.62121    180.25841    81.057056    78.003465   -156.62121   0.97929757 
   79060    1140963.3    499.56601   -261.20341    180.28108    81.170255    77.969474    261.20341   0.97954647 
   79080    1141037.6    499.76878   -142.40882    180.30375    81.166037      77.9688    142.40882   0.97979538 
   79100    1141101.3    500.61421   -480.05581    180.32641    81.187162    77.943068    480.05581   0.98004428 
   79120    1140934.2    501.19485   -365.19174    180.34908    81.185308    77.923635    365.19174   0.98029319 
   79140    1140358.4    499.67049    88.500713    180.37175    81.155237    77.903376   -88.500713    0.9805421 
   79160    1140828.9    502.86158    225.03272    180.39442    81.137385    77.942875   -225.03272     0.980791 
   79180    1142119.5    501.15429    83.493359    180.41709     81.15055    78.008583   -83.493359   0.98103991 
   79200      1143462     500.5792   -3.9504892    180.43976    81.195346     78.04739    3.9504892   0.98128881 
   79220    1143523.6    500.88332   -209.79109    180.46242    81.170147    78.066011    209.79109   0.98153772 
   79240    1143831.5    502.00656   -324.64265    180.48509    81.135657    78.110419    324.64265   0.98178662 
   79260    1143468.3    500.48902    46.923387    180.50776    81.113781    78.096869   -46.923387   0.98203553 
   79280    1144254.5    499.69487   -109.02368    180.53043       81.118    78.136686    109.02368   0.98228444 
   79300    1145072.6    503.87798   -292.18688     180.5531    81.156638    78.145508    292.18688   0.98253334 
   79320    1144761.3    502.33173   -323.94741    180.57577    81.151389    78.119512    323.94741   0.98278225 
   79340    1142780.9    501.77288    2.0945904    180.59843    81.076486    78.046618   -2.0945904   0.98303115 
   79360    1141929.5    503.58064    25.995057     180.6211    81.018684    78.034315   -25.995057   0.98328006 
   79380    1141480.9    501.90531    122.74818    180.64377    80.965311    78.045282   -122.74818   0.98352896 
   79400    1141467.6    503.49269   -47.333343    180.66644    80.907136    78.090696    47.333343   0.98377787 
   79420    1140442.8    501.70424   -51.226641    180.68911    80.913109    78.005037    51.226641   0.98402677 
   79440    1139904.8    502.91008   -280.81979    180.71178    80.908785    77.962626    280.81979   0.98427568 
   79460    1139854.7    501.01718    115.28499    180.73444    80.856125    78.000187   -115.28499   0.98452459 
   79480    1139709.8    500.65212     226.2422    180.75711    80.856705    77.979933    -226.2422   0.98477349 
   79500    1139557.3    499.83868   -264.36263    180.77978    80.817442    77.997598    264.36263    0.9850224 
   79520    1141031.8    502.10547   -344.70578    180.80245    80.907037    78.002252    344.70578    0.9852713 
   79540    1141671.7    498.78385   -150.40783    180.82512    80.903774    78.039359    150.40783   0.98552021 
   79560    1141937.3    500.32675    149.71326    180.84779    80.924828    78.027423   -149.71326   0.98576911 
   79580    1142031.1    497.48788    129.30443    180.87045    80.933227    78.015955   -129.30443   0.98601802 
   79600    1141357.1    498.81702    197.33996    180.89312    80.893578    77.998352   -197.33996   0.98626693 
   79620    1142249.7    500.74983   -167.42117    180.91579    80.864311    78.077823    167.42117   0.98651583 
   79640    1142576.9    496.83176   -593.36269    180.93846    80.943822    78.013695    593.36269   0.98676474 
   79660    1141525.5    499.34295   -245.54891    180.96113    80.918001    77.957014    245.54891   0.98701364 
   79680    1139933.2    500.67342    85.238131     180.9838    80.900715    77.855148   -85.238131   0.98726255 
   79700    1139264.6     500.4777    110.31632    181.00646    80.867571    77.831628   -110.31632   0.98751145 
   79720    1140136.6    499.23398   -94.962749    181.02913    80.974233    77.778859    94.962749   0.98776036 
   79740    1141032.6    498.39438   -209.22186     181.0518    81.034885    77.771984    209.22186   0.98800926 
   79760    1140172.5    500.81162   -121.41595    181.07447    81.049754    77.689376    121.41595   0.98825817 
   79780    1139804.4    501.14588   -61.626487    181.09714    81.061752     77.64308    61.626487   0.98850708 
   79800    1139953.7     500.5445    13.600416    181.11981    81.078548    77.627445   -13.600416   0.98875598 
   79820    1140804.8    501.38802    42.121075    181.14247    81.117789    77.638106   -42.121075   0.98900489 
   79840    1141556.9    500.01143    84.377605    181.16514    81.125287    77.672391   -84.377605   0.98925379 
   79860    1141602.2    501.02243    6.4405605    181.18781    81.090193    77.699369   -6.4405605    0.9895027 
   79880    1140861.4    499.74528    1.7308529    181.21048     81.05622    77.671777   -1.7308529    0.9897516 
   79900    1140504.5    501.98502   -68.620023    181.23315     81.05295    77.640893    68.620023   0.99000051 
   79920    1140801.1    500.36481   -304.27495    181.25582    81.006714    77.695697    304.27495   0.99024942 
   79940    1140629.3    497.44235   -282.96209    181.27848    81.006469    77.674516    282.96209   0.99049832 
   79960    1139984.3    498.35379    315.90209    181.30115    80.935591    77.688866   -315.90209   0.99074723 
   79980    1139525.2    499.36127    258.44462    181.32382    80.967266    77.617493   -258.44462   0.99099613 
   80000    1139624.6    497.94974   -24.648407    181.34649    81.012099    77.571607    24.648407   0.99124504 
Loop time of 4513.72 on 64 procs for 80000 steps with 64040 atoms

Performance: 1.531 ns/day, 15.673 hours/ns, 17.724 timesteps/s
99.8% CPU use with 64 MPI tasks x 1 OpenMP threads

MPI task timing breakdown:
Section |  min time  |  avg time  |  max time  |%varavg| %total
---------------------------------------------------------------
Pair    | 555.88     | 1288.1     | 1662.5     | 865.6 | 28.54
Bond    | 45.457     | 101.08     | 121.4      | 191.7 |  2.24
Kspace  | 268.33     | 659.94     | 1448.5     |1284.3 | 14.62
Neigh   | 2307.7     | 2318.4     | 2328.7     |  10.5 | 51.36
Comm    | 99.492     | 109.38     | 121.71     |  52.0 |  2.42
Output  | 2.8123     | 2.8332     | 2.9334     |   1.1 |  0.06
Modify  | 27.185     | 29.312     | 31.141     |  19.7 |  0.65
Other   |            | 4.712      |            |       |  0.10

Nlocal:        1000.62 ave        1529 max           0 min
Histogram: 5 8 2 0 2 1 8 9 8 21
Nghost:        10577.9 ave       15747 max        3603 min
Histogram: 7 9 0 0 0 16 15 1 0 16
Neighs:       637009.0 ave  1.1116e+06 max           0 min
Histogram: 14 1 1 0 2 8 11 7 9 11

Total # of neighbors = 40768602
Ave neighs/atom = 636.61152
Ave special neighs/atom = 5.8719550
Neighbor list builds = 80000
Dangerous builds not checked
Total wall time: 1:15:17
