LAMMPS (29 Oct 2020)
OMP_NUM_THREADS environment is not set. Defaulting to 1 thread. (../comm.cpp:94)
  using 1 OpenMP thread(s) per MPI task
####################################################
#    This program is free software: you can redistribute it and/or modify
#    it under the terms of the GNU General Public License as published by
#    the Free Software Foundation, either version 3 of the License, or
#    (at your option) any later version.
#
#    This program is distributed in the hope that it will be useful,
#    but WITHOUT ANY WARRANTY; without even the implied warranty of
#    MERCHANTABILITY or FITNESS FOR A PARTICULAR PURPOSE.  See the
#    GNU General Public License for more details.


units		real        ## defines the units style used herein. More information: https://docs.lammps.org/units.html
atom_style	full        ## defines the atom style used herein. More information: https://docs.lammps.org/atom_style.html

# Styles
pair_style      lj/cut/coul/long 15.0 10.0      ## sets the formula(s) LAMMPS uses to compute pairwise interactions; here, lennard-jones (LJ) with long-range Coulomb interaction. More: https://docs.lammps.org/pair_lj_cut_coul.html
pair_modify     shift no                        ## the shift keyword determines whether a Lennard-Jones potential is shifted at its cutoff to 0.0. More: https://docs.lammps.org/pair_modify.html
kspace_style    pppm 1.0e-4                     ## defines a long-range solver for LAMMPS to compute long-range Coulombic interactions. Note: requires use of a matching pair style, i.e. PPPM with coul/long. More: https://docs.lammps.org/kspace_style.html
bond_style      harmonic                        ## defined based off the forcefield used to construct the system; models the atoms' interactions
angle_style     harmonic
dihedral_style  opls
improper_style  cvff
special_bonds   lj 0 0 1 coul 0 0 1

read_data       100K_TRP.lmps      ## input lammps datafile, equilibriated until structure nears experimental properties
Reading data file ...
  orthogonal box = (230.25087 230.25087 230.25087) to (369.74913 369.74913 369.74913)
  4 by 4 by 4 MPI processor grid
  reading atoms ...
  212040 atoms
  reading velocities ...
  212040 velocities
  scanning bonds ...
  2 = max bonds/atom
  scanning angles ...
  6 = max angles/atom
  scanning dihedrals ...
  15 = max dihedrals/atom
  scanning impropers ...
  2 = max impropers/atom
  reading bonds ...
  236020 bonds
  reading angles ...
  399920 angles
  reading dihedrals ...
  615800 dihedrals
  reading impropers ...
  127960 impropers
Finding 1-2 1-3 1-4 neighbors ...
  special bond factors lj:    0.0      0.0      1.0     
  special bond factors coul:  0.0      0.0      1.0     
     4 = max # of 1-2 neighbors
    10 = max # of 1-3 neighbors
    14 = max # of special neighbors
  special bonds CPU = 1.567 seconds
  read_data CPU = 3.832 seconds

dielectric      1.0
neighbor    	1.0 bin
neigh_modify	delay 0 every 1 check no        ## this is to make sure that the neighbor list is updated every timestep, and the atoms don't get lost as the system is being deformed ##

timestep	    1.0                             ## unit = fs, per "real" unit style
run_style       verlet                          ## defines algorithm used for simulation computation; verlet integration is a numerical method used to integrate Newton's equations of motion.

variable stress equal press*-1                         ## computes stress as the negative of press values
variable engStrain equal (lx-91.07191)/91.07191      ## computes engineering strain; lx_0 must be found and inputted manually (for now)

thermo		    20                                                               ## output log data (headers in thermo_style), recorded at every timestep in numList.txt
thermo_style    custom step vol temp press lx ly lz v_stress v_engStrain         ## data headers of output log file. More: https://docs.lammps.org/thermo_style.html

################# Deformation ##################

fix 1 all npt temp 100 100 100 y 1 1 100.0 z 1 1 100.0      ## stress normal to the x direction can vary; external pressure (y and z) = 1atm ##

fix 2 all deform 1 x scale 2.0 remap x                      ## sets a uniaxial (x-direction) deformation in motion, scaling a set amount (here, 4.0x) the initial length


################# Dumping ##################

reset_timestep 0

dump dump2 all custom 2000 sim.lammpstrj id mol type q xs ys zs ix iy iz

restart 4000 PMP.restart

run 		40000              ## this depends on the overall strain rate, where strain rate = deformScale / runTimeSteps (consider units!)
PPPM initialization ...
WARNING: System is not charge neutral, net charge = 0.034008 (../kspace.cpp:313)
  using 12-bit tables for long-range coulomb (../kspace.cpp:328)
  G vector (1/distance) = 0.20011664
  grid = 36 36 36
  stencil order = 5
  estimated absolute RMS force accuracy = 0.040574601
  estimated relative force accuracy = 0.00012218921
  using double precision FFTW3
  3d grid and FFT values/proc = 2744 900
Neighbor list info ...
  update every 1 steps, delay 0 steps, check no
  max neighbors/atom: 2000, page size: 100000
  master list distance cutoff = 16
  ghost atom cutoff = 16
  binsize = 8, bins = 18 18 18
  1 neighbor lists, perpetual/occasional/extra = 1 0 0
  (1) pair lj/cut/coul/long, perpetual
      attributes: half, newton on
      pair build: half/bin/newton
      stencil: half/bin/3d/newton
      bin: standard
Per MPI rank memory allocation (min/avg/max) = 38.92 | 39.74 | 40.14 Mbytes
Step Volume Temp Press Lx Ly Lz v_stress v_engStrain 
       0    2714603.8    100.15978    14829.197    139.49827    139.49827    139.49827   -14829.197   0.53173761 
      20    2743738.3    103.71542    518.31014    139.56802    140.21539    140.20423   -518.31014   0.53250348 
      40    2761008.4    103.49722    1092.7278    139.63777     140.6198    140.61069   -1092.7278   0.53326934 
      60    2754222.1    103.84379   -301.11264    139.70752     140.4128    140.40175    301.11264   0.53403521 
      80    2747527.5    103.71172   -73.279414    139.77727    140.21013    140.19293    73.279414   0.53480108 
     100    2751267.4    103.75217   -83.738689    139.84702     140.2832    140.24066    83.738689   0.53556695 
     120    2748703.8    102.69016   -573.90314    139.91676    140.18908    140.13416    573.90314   0.53633282 
     140    2741347.4    102.98975   -579.48024    139.98651    139.97473    139.90339    579.48024   0.53709869 
     160    2739304.9    102.56793   -510.08109    140.05626    139.89611    139.80806    510.08109   0.53786456 
     180    2742645.4    102.75028   -437.53386    140.12601    139.95821    139.84679    437.53386   0.53863043 
     200      2736619    102.69693   -300.19006    140.19576    139.77241    139.65548    300.19006    0.5393963 
     220    2737647.2    102.52061   -181.71341    140.26551    139.76587    139.64501    181.71341   0.54016216 
     240    2738335.4    102.27586    470.34486    140.33526     139.7603    139.61627   -470.34486   0.54092803 
     260    2733653.5    102.20012    96.057226    140.40501    139.61619    139.45211   -96.057226    0.5416939 
     280    2735979.1    102.02415    54.282274    140.47476     139.6467    139.47097   -54.282274   0.54245977 
     300    2737691.9    101.77728    -737.6325    140.54451    139.66112    139.47461     737.6325   0.54322564 
     320    2736058.6    101.90463    190.62563    140.61426    139.59743    139.38583   -190.62563   0.54399151 
     340    2734420.3    101.17024   -595.81034      140.684    139.53983    139.29078    595.81034   0.54475738 
     360    2736671.2    101.08899   -40.146611    140.75375     139.5804    139.29586    40.146611   0.54552325 
     380    2741503.4    101.23278   -5.3371421     140.8235    139.69246    139.36082    5.3371421   0.54628911 
     400    2738695.8    100.57109   -498.05008    140.89325    139.57453    139.26675    498.05008   0.54705498 
     420    2740398.5    100.71654   -133.29355      140.963    139.57782     139.2811    133.29355   0.54782085 
     440    2742931.3    100.82893    88.071344    141.03275    139.62026    139.29852   -88.071344   0.54858672 
     460    2742818.3     100.6264   -315.95994     141.1025    139.59326    139.25087    315.95994   0.54935259 
     480    2740232.7    100.28983   -136.43434    141.17225    139.49503    139.14877    136.43434   0.55011846 
     500    2744312.9    100.41539   -122.73595      141.242    139.58071    139.20165    122.73595   0.55088433 
     520    2745101.5    100.26907   -191.54441    141.31175    139.56064    139.19294    191.54441    0.5516502 
     540    2745846.5    100.27812   -497.06802     141.3815    139.54563    139.17699    497.06802   0.55241606 
     560    2747253.8    99.767198   -217.02329    141.45125    139.55912     139.1662    217.02329   0.55318193 
     580    2747126.5    99.964893   -244.81763    141.52099    139.51833    139.13184    244.81763    0.5539478 
     600    2748203.3    99.831339    -79.56055    141.59074    139.49884    139.13724     79.56055   0.55471367 
     620    2748757.8    99.657647   -510.90126    141.66049    139.46265    139.13289    510.90126   0.55547954 
     640    2750278.2    99.580319   -117.89452    141.73024    139.46544    139.13855    117.89452   0.55624541 
     660    2749910.4    99.724743   -331.70475    141.79999    139.40167    139.11513    331.70475   0.55701128 
     680    2747730.5    99.778476   -103.59879    141.86974    139.29592    139.04199    103.59879   0.55777715 
     700    2748632.8    99.666115   -186.55423    141.93949    139.28184    139.03335    186.55423   0.55854302 
     720    2750906.4    99.654176    79.543699    142.00924     139.3058    139.05609   -79.543699   0.55930888 
     740    2749202.6    99.770405   -377.37487    142.07899    139.22234    138.98501    377.37487   0.56007475 
     760    2750165.9    99.679661    -8.595876    142.14874    139.22436    138.96347     8.595876   0.56084062 
     780    2754245.9    99.570109   -362.49658    142.21849    139.28435    139.04147    362.49658   0.56160649 
     800    2752343.4    99.632929    -9.558233    142.28823    139.19485    138.96661     9.558233   0.56237236 
     820    2751285.3    99.798359    -397.7356    142.35798    139.13502    138.90483     397.7356   0.56313823 
     840    2754904.3    100.16217    -288.7946    142.42773    139.19222     138.9623     288.7946    0.5639041 
     860      2754415    99.820658   -234.71923    142.49748    139.12944    138.93228    234.71923   0.56466997 
     880    2752810.7    99.634643   -258.75045    142.56723    139.05318    138.85954    258.75045   0.56543583 
     900    2755896.9    100.16588   -408.36862    142.63698    139.08115    138.91929    408.36862    0.5662017 
     920    2758829.4    100.09729   -205.72415    142.70673    139.12137    138.95896    205.72415   0.56696757 
     940    2755539.2    100.05852   -400.48795    142.77648    139.01988    138.82671    400.48795   0.56773344 
     960    2756807.3    100.03648   -329.09878    142.84623    139.02929    138.81337    329.09878   0.56849931 
     980    2759767.9     100.3544    -448.8114    142.91598    139.05294    138.87101     448.8114   0.56926518 
    1000    2757359.6    100.29827   -251.00112    142.98573    138.96236    138.77254    251.00112   0.57003105 
    1020    2758216.5    100.08679   -458.78074    143.05548    138.96453    138.74582    458.78074   0.57079692 
    1040    2758640.3    100.28181   -342.19808    143.12522    138.94079    138.72321    342.19808   0.57156278 
    1060    2761147.5    100.53317   -463.11162    143.19497    138.97723    138.74527    463.11162   0.57232865 
    1080      2758708     100.1737   -426.16897    143.26472    138.88188    138.65033    426.16897   0.57309452 
    1100    2759981.8    100.01804   -372.84302    143.33447    138.88667    138.64206    372.84302   0.57386039 
    1120    2760866.2    100.18547    12.129557    143.40422    138.89825    138.60748   -12.129557   0.57462626 
    1140    2761222.9    100.37174   -422.10336    143.47397    138.86575    138.59042    422.10336   0.57539213 
    1160    2761053.8    100.33772   -85.596267    143.54372    138.82457    138.55568    85.596267     0.576158 
    1180    2761531.3    100.05122   -331.35706    143.61347    138.80182    138.53504    331.35706   0.57692387 
    1200      2763535     99.94398   -283.80335    143.68322    138.83042    138.53972    283.80335   0.57768974 
    1220    2761188.9     99.92271   -386.22441    143.75297    138.73607    138.44903    386.22441    0.5784556 
    1240    2764885.8    99.901755   -260.29778    143.82272    138.78948    138.51384    260.29778   0.57922147 
    1260    2764812.1    99.842851   -584.86738    143.89246    138.76747    138.46497    584.86738   0.57998734 
    1280    2764866.7    99.942921   -208.36274    143.96221    138.72984    138.43815    208.36274   0.58075321 
    1300    2764216.2    99.949546   -460.60998    144.03196     138.6879    138.38039    460.60998   0.58151908 
    1320    2766467.9    99.747802   -230.15869    144.10171    138.71471    138.39932    230.15869   0.58228495 
    1340    2765930.1     99.81899   -357.20577    144.17146    138.67382    138.34626    357.20577   0.58305082 
    1360    2764603.9    99.579938   -192.49136    144.24121    138.60656    138.28012    192.49136   0.58381669 
    1380      2768178    99.944089   -366.57918    144.31096    138.67006     138.3286    366.57918   0.58458255 
    1400    2767086.9    99.988833    -183.0097    144.38071    138.59423     138.2829     183.0097   0.58534842 
    1420    2767612.4    99.773543   -448.54122    144.45046    138.57926    138.25731    448.54122   0.58611429 
    1440      2767464    99.561601   -293.36922    144.52021    138.54042    138.22192    293.36922   0.58688016 
    1460    2769021.5     100.0893    -411.3829    144.58996    138.54317    138.23024     411.3829   0.58764603 
    1480    2768657.8    99.886326   -370.16679    144.65971    138.50901    138.17952    370.16679    0.5884119 
    1500    2768563.2    99.884942   -518.65542    144.72945    138.48243    138.13472    518.65542   0.58917777 
    1520    2769325.7    99.982165   -376.25864     144.7992    138.46075    138.12782    376.25864   0.58994364 
    1540    2770568.5     100.1168   -594.80293    144.86895    138.45906    138.12497    594.80293    0.5907095 
    1560    2769950.5    100.06614   -399.75115     144.9387    138.40597    138.08065    399.75115   0.59147537 
    1580    2771173.4    100.26026   -484.84862    145.00845    138.40279    138.07833    484.84862   0.59224124 
    1600    2771255.9    100.02021   -263.19406     145.0782    138.38309    138.03571    263.19406   0.59300711 
    1620    2771852.8    100.14555   -460.47106    145.14795    138.35732     138.0248    460.47106   0.59377298 
    1640    2771886.9    100.09199    -447.4902     145.2177    138.32567    137.99176     447.4902   0.59453885 
    1660    2772347.4    100.12542   -353.47639    145.28745    138.30281    137.97123    353.47639   0.59530472 
    1680    2772917.8    100.01293   -369.67468     145.3572    138.28111    137.95505    369.67468   0.59607059 
    1700    2772580.2    100.25977   -567.50506    145.42695    138.22037    137.93269    567.50506   0.59683646 
    1720    2774736.4    100.38619   -351.36463     145.4967    138.23571    137.95847    351.36463   0.59760232 
    1740    2775005.5    100.29158   -568.89737    145.56644    138.20552    137.93586    568.89737   0.59836819 
    1760    2775124.1    100.45866   -346.55248    145.63619    138.16735    137.91378    346.55248   0.59913406 
    1780    2774675.7    100.17459   -502.30869    145.70594    138.09498    137.89772    502.30869   0.59989993 
    1800    2777503.5    100.02862   -289.43695    145.77569    138.10966    137.95754    289.43695    0.6006658 
    1820    2776672.8    100.03964   -451.53576    145.84544    138.04633    137.91356    451.53576   0.60143167 
    1840    2777082.3    99.746948   -255.65982    145.91519    138.03059    137.88369    255.65982   0.60219754 
    1860      2778091    99.866444   -455.97463    145.98494    138.03013    137.86833    455.97463   0.60296341 
    1880      2779527    99.965656    -276.8546    146.05469    138.03408    137.86978     276.8546   0.60372927 
    1900    2778577.4    99.703247   -490.89545    146.12444    137.95258    137.83828    490.89545   0.60449514 
    1920    2779672.8    99.868545    -341.1591    146.19419    137.93699     137.8424     341.1591   0.60526101 
    1940    2782010.7     99.82863   -525.56376    146.26394    137.95087    137.87867    525.56376   0.60602688 
    1960    2780069.5    99.661262   -495.89013    146.33368    137.88607    137.78151    495.89013   0.60679275 
    1980    2782236.9    99.716023   -683.78387    146.40343    137.91404    137.79529    683.78387   0.60755862 
    2000      2782174    99.603786   -473.04329    146.47318    137.89418    137.74639    473.04329   0.60832449 
    2020    2782432.8     99.66245   -478.41598    146.54293    137.87642    137.71138    478.41598   0.60909036 
    2040    2781501.8    99.944615   -393.32248    146.61268      137.823    137.65314    393.32248   0.60985622 
    2060    2783297.7    100.14001   -484.88982    146.68243    137.82055    137.67896    484.88982   0.61062209 
    2080      2783258    100.06388   -309.33614    146.75218    137.78371    137.64835    309.33614   0.61138796 
    2100    2782615.4    100.11204   -527.97277    146.82193    137.74811    137.58675    527.97277   0.61215383 
    2120    2784120.2     99.90049     -481.179    146.89168     137.7585    137.58541      481.179    0.6129197 
    2140    2784803.6    99.974372   -591.96189    146.96143    137.76848     137.5439    591.96189   0.61368557 
    2160    2784848.3    100.10387   -501.40108    147.03118    137.71797    137.53128    501.40108   0.61445144 
    2180    2784740.3    100.02833   -615.45212    147.10093    137.66372    137.51491    615.45212   0.61521731 
    2200    2786477.1    100.17416   -471.16513    147.17067    137.65585    137.54332    471.16513   0.61598318 
    2220    2786849.2    100.25098   -570.64506    147.24042    137.62938    137.52297    570.64506   0.61674904 
    2240    2786633.5    100.28928   -526.46962    147.31017    137.60127     137.4753    526.46962   0.61751491 
    2260    2787645.3    100.38952    -481.5001    147.37992    137.60264    137.45877     481.5001   0.61828078 
    2280    2789202.7    100.11071    -365.5945    147.44967    137.60835    137.46479     365.5945   0.61904665 
    2300      2789331     100.4022   -618.41217    147.51942    137.57876    137.43567    618.41217   0.61981252 
    2320    2789671.1    100.14438   -450.60674    147.58917    137.55835    137.40785    450.60674   0.62057839 
    2340    2791550.5     100.1418   -596.56221    147.65892    137.57162    137.42222    596.56221   0.62134426 
    2360      2791892    99.994458   -518.47943    147.72867     137.5641    137.38165    518.47943   0.62211013 
    2380    2791085.6     100.1013   -540.04461    147.79842    137.52223    137.31895    540.04461   0.62287599 
    2400    2793937.9    100.03169   -461.17197    147.86817     137.5591    137.35762    461.17197   0.62364186 
    2420    2794055.2    100.06167   -572.48908    147.93791    137.55541     137.3023    572.48908   0.62440773 
    2440    2794098.2     99.80372   -425.88436    148.00766    137.51896    137.27609    425.88436    0.6251736 
    2460    2795177.7    99.980368    -558.2988    148.07741    137.49456    137.28879     558.2988   0.62593947 
    2480    2796680.8    99.866039   -461.73223    148.14716     137.4882     137.3043    461.73223   0.62670534 
    2500    2795918.2    100.08672    -492.5412    148.21691    137.42887     137.2615     492.5412   0.62747121 
    2520    2797193.2    99.914583   -447.02368    148.28666    137.40976    137.27859    447.02368   0.62823708 
    2540    2798750.6    99.847845   -457.60701    148.35641    137.40669    137.29351    457.60701   0.62900295 
    2560    2798496.7    99.886734   -463.48111    148.42616    137.37877    137.24442    463.48111   0.62976881 
    2580    2799407.3    99.861922   -540.43072    148.49591    137.36447    137.23889    540.43072   0.63053468 
    2600    2799181.7    100.10254   -474.92923    148.56566    137.32466    137.20317    474.92923   0.63130055 
    2620    2800878.4    100.15574    -643.2277    148.63541     137.3182    137.22836     643.2277   0.63206642 
    2640    2800018.1    100.10364   -585.91316    148.70516    137.24784    137.19215    585.91316   0.63283229 
    2660    2800818.5    99.956013   -803.77362     148.7749     137.2315    137.18337    803.77362   0.63359816 
    2680    2800593.5    99.783203   -523.11168    148.84465    137.21457    137.12499    523.11168   0.63436403 
    2700    2800753.6    100.05264   -728.08814     148.9144    137.19498    137.08817    728.08814    0.6351299 
    2720    2800200.5    99.962028   -460.02265    148.98415    137.14824    137.04362    460.02265   0.63589576 
    2740    2801344.1    100.11761   -617.21982     149.0539    137.12574    137.05792    617.21982   0.63666163 
    2760    2802376.9    100.17555   -458.19866    149.12365    137.13238    137.03768    458.19866    0.6374275 
    2780    2802071.9    100.20307   -567.33603     149.1934    137.10413    136.98693    567.33603   0.63819337 
    2800    2802981.9    100.10003   -521.11549    149.26315      137.116    136.95553    521.11549   0.63895924 
    2820    2804009.4    100.00173   -608.99506     149.3329    137.12745     136.9303    608.99506   0.63972511 
    2840    2804251.8    99.979079   -641.43805    149.40265     137.1132    136.89243    641.43805   0.64049098 
    2860    2803624.3    100.11862   -583.11333     149.4724     137.0577    136.85333    583.11333   0.64125685 
    2880    2805544.3    99.990707   -587.11749    149.54214    137.07263    136.86827    587.11749   0.64202271 
    2900    2805208.8    100.19855   -532.07246    149.61189    137.03727     136.8234    532.07246   0.64278858 
    2920    2805407.1    99.881694   -596.70438    149.68164    137.01262    136.79392    596.70438   0.64355445 
    2940    2805956.4    100.06236   -497.12179    149.75139    137.00406    136.76552    497.12179   0.64432032 
    2960    2807301.2    100.12789   -463.09884    149.82114    137.00834    136.76309    463.09884   0.64508619 
    2980    2807124.1    99.872337   -540.00414    149.89089    136.97174    136.72736    540.00414   0.64585206 
    3000    2808322.9    100.01768   -487.25491    149.96064    136.96846     136.7254    487.25491   0.64661793 
    3020    2809272.5    100.03229   -640.03601    150.03039     136.9622    136.71429    640.03601    0.6473838 
    3040    2809594.9    100.00343   -425.76533    150.10014    136.95452    136.67411    425.76533   0.64814967 
    3060    2808829.7    99.834415   -686.49579    150.16989    136.89464    136.63316    686.49579   0.64891553 
    3080    2811019.2    99.945675   -452.54812    150.23964    136.91009    136.66076    452.54812    0.6496814 
    3100    2811247.5     99.86828   -723.57999    150.30939    136.89072    136.62777    723.57999   0.65044727 
    3120    2810351.5    100.12085   -507.69547    150.37913    136.83156     136.5799    507.69547   0.65121314 
    3140      2811854    99.873718   -696.70778    150.44888    136.82981    136.59131    696.70778   0.65197901 
    3160    2811663.1    100.01571   -567.15966    150.51863    136.77134    136.57711    567.15966   0.65274488 
    3180    2813145.3    100.00682   -549.28536    150.58838    136.75323     136.6039    549.28536   0.65351075 
    3200    2811721.9    100.06421   -606.98226    150.65813    136.67606    136.54862    606.98226   0.65427662 
    3220    2814443.8    99.918812   -492.12643    150.72788    136.72352    136.57015    492.12643   0.65504248 
    3240    2813733.2    99.905096   -582.64076    150.79763    136.65354     136.5424    582.64076   0.65580835 
    3260    2814449.8     99.97974   -653.04788    150.86738    136.64246    136.52509    653.04788   0.65657422 
    3280      2815243    99.778476   -692.00038    150.93713    136.65584     136.4871    692.00038   0.65734009 
    3300      2816517    100.11834   -751.88642    151.00688    136.64775    136.49387    751.88642   0.65810596 
    3320    2816883.3    99.954501   -624.15312    151.07663    136.60639    136.48992    624.15312   0.65887183 
    3340    2816887.2    100.29739   -728.42429    151.14637    136.57697     136.4565    728.42429    0.6596377 
    3360    2818725.3    100.16843   -516.55255    151.21612    136.58635    136.47319    516.55255   0.66040357 
    3380    2818252.4    100.06073   -690.78432    151.28587    136.52862    136.44505    690.78432   0.66116943 
    3400    2818205.8    99.986889   -499.18795    151.35562    136.50607    136.40245    499.18795    0.6619353 
    3420    2818938.8    99.973893   -589.88357    151.42537    136.48863    136.39251    589.88357   0.66270117 
    3440    2820862.7    99.856018   -535.37438    151.49512    136.51546    136.39595    535.37438   0.66346704 
    3460    2819338.9     99.83153   -557.37261    151.56487    136.45843    136.31648    557.37261   0.66423291 
    3480      2820258    99.925454   -536.72781    151.63462    136.44584    136.31078    536.72781   0.66499878 
    3500    2821738.8    99.966506   -623.54359    151.70437    136.43825    136.32722    623.54359   0.66576465 
    3520    2821892.4    99.873971   -657.03714    151.77412    136.41864    136.29157    657.03714   0.66653052 
    3540      2821981    99.838934   -667.62812    151.84387    136.39813    136.25373    667.62812   0.66729639 
    3560    2823576.3     100.0701   -671.91717    151.91362    136.41099    136.25532    671.91717   0.66806225 
    3580    2824093.3    99.841432   -640.02968    151.98336    136.41296    136.21576    640.02968   0.66882812 
    3600    2824231.7    99.926291   -658.90686    152.05311    136.39072    136.18215    658.90686   0.66959399 
    3620    2825474.5    100.18936   -665.83943    152.12286    136.39791    136.17243    665.83943   0.67035986 
    3640      2826059    99.777653   -577.23419    152.19261    136.38194    136.15412    577.23419   0.67112573 
    3660    2826681.7    100.11724   -641.71674    152.26236    136.35899    136.14464    641.71674    0.6718916 
    3680    2827772.4    99.889434   -624.56409    152.33211    136.37695    136.11689    624.56409   0.67265747 
    3700    2828667.3    99.859339   -569.99596    152.40186    136.37041    136.10418    569.99596   0.67342334 
    3720      2828680    100.03851   -585.24641    152.47161    136.35315    136.05975    585.24641    0.6741892 
    3740    2829730.5    99.945191   -738.48321    152.54136     136.3533     136.0479    738.48321   0.67495507 
    3760    2830483.4    99.815322   -607.42671    152.61111    136.33739    136.03776    607.42671   0.67572094 
    3780    2831990.2    100.12969     -711.912    152.68086    136.34915    136.03628      711.912   0.67648681 
    3800      2831086    99.915124   -636.53369    152.75061    136.31313    135.96667    636.53369   0.67725268 
    3820      2832670    99.985089   -661.42412    152.82035    136.29391    135.99982    661.42412   0.67801855 
    3840    2833675.1     99.86621     -556.246     152.8901    136.28438    135.99552      556.246   0.67878442 
    3860    2833652.6     100.0913   -608.25244    152.95985    136.26037    135.95638    608.25244   0.67955029 
    3880      2833407    99.928137   -495.54205     153.0296    136.19984    135.94302    495.54205   0.68031615 
    3900    2835362.9     99.57936   -592.13782    153.09935    136.21355     135.9612    592.13782   0.68108202 
    3920    2835325.1    99.817691   -534.60979     153.1691    136.19064    135.92033    534.60979   0.68184789 
    3940    2834910.2    99.668177   -722.41135    153.23885    136.14815    135.88099    722.41135   0.68261376 
    3960    2836317.4    99.752173   -527.11038     153.3086    136.16644    135.86833    527.11038   0.68337963 
    3980    2836345.1    99.683998   -816.01378    153.37835    136.17738    135.79696    816.01378    0.6841455 
    4000    2836497.1    99.512185   -552.77043     153.4481    136.15098    135.76883    552.77043   0.68491137 
    4020    2836477.1    99.695181   -755.73495    153.51785    136.10032    135.75669    755.73495   0.68567724 
    4040    2838189.1    99.805058   -498.53104    153.58759    136.12466    135.75267    498.53104   0.68644311 
    4060    2837644.1    99.955867   -689.14096    153.65734    136.08654    135.70299    689.14096   0.68720897 
    4080      2838060    99.858378   -615.59913    153.72709    136.03258    135.71512    615.59913   0.68797484 
    4100    2839002.4    99.851062   -606.22478    153.79684    136.02433    135.70684    606.22478   0.68874071 
    4120    2838615.5    100.10276   -598.92002    153.86659    135.99577    135.65532    598.92002   0.68950658 
    4140    2839014.1    99.895246   -543.35484    153.93634    135.96969    135.63892    543.35484   0.69027245 
    4160    2839955.1    100.21842   -703.14699    154.00609    135.96458    135.62752    703.14699   0.69103832 
    4180    2842120.3    100.26427   -586.39001    154.07584    135.96957    135.66449    586.39001   0.69180419 
    4200    2841304.3    100.08131   -671.42125    154.14559    135.89203    135.64152    671.42125   0.69257006 
    4220    2842813.5    100.17341     -673.219    154.21534    135.92577    135.61852      673.219   0.69333592 
    4240    2843920.2    100.25595   -651.73562    154.28509    135.93146     135.6043    651.73562   0.69410179 
    4260    2844159.8    100.00466   -696.04716    154.35484    135.88756    135.59824    696.04716   0.69486766 
    4280    2844740.3    99.970164   -632.61955    154.42458    135.87005    135.58213    632.61955   0.69563353 
    4300    2845823.5    99.917051   -704.44515    154.49433    135.85795    135.58459    704.44515    0.6963994 
    4320    2846945.2    100.02957   -533.82545    154.56408    135.84167    135.59308    533.82545   0.69716527 
    4340    2846778.6    100.04555   -592.88518    154.63383    135.81743    135.54817    592.88518   0.69793114 
    4360      2848027    99.865961   -568.18136    154.70358    135.81201    135.55188    568.18136   0.69869701 
    4380    2849303.2    100.25806    -576.1538    154.77333    135.80393    135.55958     576.1538   0.69946287 
    4400    2849157.5    100.07219   -609.56729    154.84308    135.78844    135.50704    609.56729   0.70022874 
    4420    2849398.3    100.05394   -640.05701    154.91283    135.77676    135.46913    640.05701   0.70099461 
    4440    2850313.6    100.09489    -665.4263    154.98258    135.76094    135.46744     665.4263   0.70176048 
    4460      2851804    100.37458   -678.46022    155.05233    135.76583    135.47243    678.46022   0.70252635 
    4480    2850707.1    100.22135   -590.23578    155.12208    135.72808    135.39708    590.23578   0.70329222 
    4500    2852021.1    100.00286   -705.60102    155.19182    135.71414    135.41251    705.60102   0.70405809 
    4520    2853160.4    100.04773   -589.77061    155.26157    135.70238    135.41749    589.77061   0.70482396 
    4540      2852809    100.10814   -758.50247    155.33132    135.66281    135.37949    758.50247   0.70558983 
    4560    2853137.8    99.931083   -545.06829    155.40107    135.62337    135.37367    545.06829   0.70635569 
    4580    2853757.8    100.31989   -651.89642    155.47082    135.62851    135.33721    651.89642   0.70712156 
    4600    2854859.5    100.16216   -535.07458    155.54057    135.61895    135.33829    535.07458   0.70788743 
    4620    2854605.3    100.04227   -661.06177    155.61032     135.5629    135.32151    661.06177    0.7086533 
    4640    2856946.5    99.826213    -633.8197    155.68007    135.58749    135.34726     633.8197   0.70941917 
    4660    2857452.8    100.07722   -692.31464    155.74982    135.58552    135.31259    692.31464   0.71018504 
    4680    2857647.2    99.944374   -767.25417    155.81957    135.55254    135.29413    767.25417   0.71095091 
    4700    2858065.6    100.14442   -659.78779    155.88932    135.52877    135.27712    659.78779   0.71171678 
    4720    2859416.6    100.00873   -825.69013    155.95907    135.55045     135.2589    825.69013   0.71248264 
    4740    2858951.9     100.2207   -592.64344    156.02881    135.50586    135.22095    592.64344   0.71324851 
    4760    2859245.9    99.760278   -820.09794    156.09856    135.47939    135.20083    820.09794   0.71401438 
    4780    2860309.8    99.703091   -560.10263    156.16831    135.47603    135.19409    560.10263   0.71478025 
    4800    2860666.8    99.989822   -668.01996    156.23806    135.44369    135.18286    668.01996   0.71554612 
    4820    2861124.3    100.01539    -556.0968    156.30781    135.42201    135.16579     556.0968   0.71631199 
    4840    2862169.7    99.974906    -626.7175    156.37756    135.43889    135.13802     626.7175   0.71707786 
    4860    2863608.7    100.20379   -642.11957    156.44731     135.4346    135.14997    642.11957   0.71784373 
    4880      2863640    100.15008   -670.25064    156.51706    135.39054    135.13519    670.25064    0.7186096 
    4900    2863528.3    100.07509   -688.67088    156.58681    135.37379    135.08643    688.67088   0.71937546 
    4920    2865506.7    99.983656   -678.76739    156.65656    135.38629     135.1071    678.76739   0.72014133 
    4940    2866120.1    100.07456     -744.669    156.72631    135.35396    135.10814      744.669    0.7209072 
    4960    2865835.4    99.975659   -594.84618    156.79605    135.30653    135.08197    594.84618   0.72167307 
    4980    2867003.4     100.2351    -620.2395     156.8658    135.27827    135.10514     620.2395   0.72243894 
    5000    2867978.7    100.13213   -620.90782    156.93555    135.28808    135.08124    620.90782   0.72320481 
    5020    2868661.5    100.26331   -651.51287     157.0053    135.29227     135.0492    651.51287   0.72397068 
    5040    2868674.1    99.937341    -623.9267    157.07505    135.24784    135.03416     623.9267   0.72473655 
    5060    2869751.9    100.39866   -681.28167     157.1448    135.23716    135.03561    681.28167   0.72550241 
    5080    2869416.2    100.11354   -605.96958    157.21455    135.21569    134.98134    605.96958   0.72626828 
    5100    2870457.9    100.33434   -827.51287     157.2843    135.20117    134.98496    827.51287   0.72703415 
    5120    2871767.3    100.38844   -634.15413    157.35405    135.18873     134.9991    634.15413   0.72780002 
    5140    2871543.2    100.34803   -805.15432     157.4238     135.1606    134.95683    805.15432   0.72856589 
    5160    2871719.6    100.18128   -582.31375    157.49355    135.15629    134.90965    582.31375   0.72933176 
    5180      2872744    100.01957   -779.58097     157.5633    135.15638    134.89795    779.58097   0.73009763 
    5200    2873605.9    100.13075   -592.00628    157.63304    135.16318    134.87192    592.00628    0.7308635 
    5220    2873353.7    100.05164   -721.36672    157.70279    135.13604     134.8275    721.36672   0.73162936 
    5240      2874114     100.2891   -559.15304    157.77254    135.12331    134.81626    559.15304   0.73239523 
    5260    2875589.9    99.951066   -645.30547    157.84229    135.14653    134.80272    645.30547    0.7331611 
    5280    2875963.4    100.26064    -626.5381    157.91204    135.13388     134.7733     626.5381   0.73392697 
    5300      2876322    99.814037   -713.08201    157.98179    135.09032    134.77404    713.08201   0.73469284 
    5320    2877552.8     100.0593   -787.84223    158.05154    135.08317    134.77934    787.84223   0.73545871 
    5340    2878416.3    99.918991   -678.88169    158.12129    135.08286    134.76063    678.88169   0.73622458 
    5360    2877916.5    100.07601   -757.73148    158.19104      135.021    134.73952    757.73148   0.73699045 
    5380      2879346    99.918284   -644.31799    158.26079    135.01407    134.75395    644.31799   0.73775632 
    5400    2879739.7    99.947171   -627.73673    158.33054    134.99568    134.73136    627.73673   0.73852218 
    5420    2880485.6    99.955024   -606.58355    158.40029    134.98554    134.71703    606.58355   0.73928805 
    5440    2880220.6    100.14963   -578.85203    158.47003    134.92861    134.70216    578.85203   0.74005392 
    5460    2881611.6    100.03331   -596.30325    158.53978    134.93117    134.70536    596.30325   0.74081979 
    5480    2882239.9    99.949212   -636.78886    158.60953    134.91927    134.68736    636.78886   0.74158566 
    5500    2882203.8    100.07208   -662.16142    158.67928    134.89631    134.64939    662.16142   0.74235153 
    5520    2883356.7    100.01738   -664.25432    158.74903    134.90097    134.63941    664.25432    0.7431174 
    5540    2883735.4    99.992056   -648.89868    158.81878    134.87833    134.62055    648.89868   0.74388327 
    5560    2883642.6    100.00692    -646.8183    158.88853     134.8399    134.59548     646.8183   0.74464913 
    5580    2884387.4    100.05502   -676.85334    158.95828    134.86459    134.54653    676.85334     0.745415 
    5600    2885681.3    99.917174   -618.48763    159.02803    134.89042    134.52208    618.48763   0.74618087 
    5620      2886107    100.21753   -705.33685    159.09778    134.87179    134.50152    705.33685   0.74694674 
    5640    2887217.6     100.1887   -663.47826    159.16753     134.8686     134.4975    663.47826   0.74771261 
    5660    2887514.1    99.906133   -701.26689    159.23727    134.86447    134.45651    701.26689   0.74847848 
    5680    2888081.7    100.29647   -588.18187    159.30702    134.85214    134.43635    588.18187   0.74924435 
    5700    2887537.7    100.14218   -682.33793    159.37677    134.79327    134.41088    682.33793   0.75001022 
    5720    2888485.8    99.988985   -578.29481    159.44652    134.79947    134.39001    578.29481   0.75077608 
    5740    2889336.4    100.21043   -712.43299    159.51627    134.79106    134.37919    712.43299   0.75154195 
    5760    2889144.3    100.17644   -670.36689    159.58602    134.75088    134.35159    670.36689   0.75230782 
    5780    2890172.1    100.23035   -750.58405    159.65577     134.7643    134.32728    750.58405   0.75307369 
    5800    2891000.3    100.10115   -652.50331    159.72552    134.75029    134.32106    652.50331   0.75383956 
    5820    2891011.9    100.25172   -678.62485    159.79527    134.70208    134.31103    678.62485   0.75460543 
    5840    2891555.3    100.34391   -633.20494    159.86502    134.69456    134.28515    633.20494    0.7553713 
    5860    2892508.4    100.08671    -671.6731    159.93477    134.68117    134.28418     671.6731   0.75613717 
    5880    2893210.1    100.05729   -656.66878    160.00452    134.66208    134.27724    656.66878   0.75690304 
    5900    2893315.1    100.09414   -571.23922    160.07426    134.63693    134.24868    571.23922    0.7576689 
    5920    2893818.7    100.21885   -631.78581    160.14401    134.62817     134.2223    631.78581   0.75843477 
    5940    2895089.7    100.22033   -472.13872    160.21376    134.62419    134.22676    472.13872   0.75920064 
    5960    2895197.7    100.22713   -663.89229    160.28351     134.5906    134.20683    663.89229   0.75996651 
    5980    2895940.1    100.05772   -554.68068    160.35326    134.58698    134.18647    554.68068   0.76073238 
    6000    2896365.9    100.02824   -757.31761    160.42301    134.55794     134.1768    757.31761   0.76149825 
    6020    2897135.4    100.27032    -502.3362    160.49276    134.54471    134.16732     502.3362   0.76226412 
    6040    2897557.4    100.19626   -812.52496    160.56251    134.51919    134.15401    812.52496   0.76302999 
    6060    2898001.7    99.980892   -604.21083    160.63226    134.48085    134.15456    604.21083   0.76379585 
    6080    2899847.2    100.31693   -780.53123    160.70201    134.50192     134.1607    780.53123   0.76456172 
    6100    2899127.9    100.11842    -633.0014    160.77176    134.46815    134.10291     633.0014   0.76532759 
    6120      2900019    99.998411   -696.44052     160.8415    134.44369    134.11035    696.44052   0.76609346 
    6140    2900543.1    99.999089    -708.0581    160.91125    134.43029    134.08981     708.0581   0.76685933 
    6160    2901625.2    100.21427    -634.5346      160.981    134.41507     134.0969     634.5346    0.7676252 
    6180    2900930.7     100.0195   -673.61089    161.05075    134.36009    134.06157    673.61089   0.76839107 
    6200    2902874.6    100.19596   -659.40209     161.1205     134.3656    134.08784    659.40209   0.76915694 
    6220      2902910    100.16043   -700.44727    161.19025    134.32648    134.07048    700.44727    0.7699228 
    6240    2902946.3    100.32544   -634.99293       161.26     134.2852    134.05536    634.99293   0.77068867 
    6260      2903168    100.16511   -696.25807    161.32975    134.26149     134.0313    696.25807   0.77145454 
    6280    2903892.9    100.03896   -592.29325     161.3995    134.25193    134.01638    592.29325   0.77222041 
    6300    2903908.1     100.1762   -680.23535    161.46925    134.20969    134.00134    680.23535   0.77298628 
    6320    2903790.2    100.24995   -649.42706      161.539    134.16073    133.98693    649.42706   0.77375215 
    6340    2904537.8    100.20949   -626.54398    161.60875    134.14303    133.98126    626.54398   0.77451802 
    6360      2904808    100.11987    -620.4867    161.67849    134.10678    133.97213     620.4867   0.77528389 
    6380      2905092    100.18273    -623.1377    161.74824    134.07612    133.95807     623.1377   0.77604976 
    6400    2905346.7    100.19703   -538.55586    161.81799    134.04663    133.94153    538.55586   0.77681562 
    6420    2906421.5    100.31126   -686.48842    161.88774    134.04432    133.93566    686.48842   0.77758149 
    6440      2906078     99.99597   -612.80766    161.95749     134.0095    133.89693    612.80766   0.77834736 
    6460    2907512.8    100.07461   -742.50637    162.02724    134.02329    133.89159    742.50637   0.77911323 
    6480    2908068.6    99.966431   -597.44091    162.09699    134.01175     133.8711    597.44091    0.7798791 
    6500    2909160.4     99.88604    -766.7362    162.16674    134.00159     133.8739     766.7362   0.78064497 
    6520    2908383.7    100.01395   -572.05386    162.23649    133.93732    133.84482    572.05386   0.78141084 
    6540    2910510.3    100.05372   -711.54223    162.30624     133.9561    133.86635    711.54223   0.78217671 
    6560    2910980.6     100.1216   -620.49819    162.37599    133.95335    133.83322    620.49819   0.78294257 
    6580    2911769.6    100.23068    -733.3826    162.44573    133.96282    133.80256     733.3826   0.78370844 
    6600    2911987.4    100.11113   -603.71369    162.51548    133.95185    133.76609    603.71369   0.78447431 
    6620    2913499.8    100.22242   -618.70642    162.58523    133.95327    133.77673    618.70642   0.78524018 
    6640    2914071.1    99.899559   -619.06476    162.65498     133.9705    133.72838    619.06476   0.78600605 
    6660    2914895.5     100.0035   -591.46756    162.72473    133.97614    133.70325    591.46756   0.78677192 
    6680    2915843.3    100.00833   -615.60661    162.79448     133.9662    133.69934    615.60661   0.78753779 
    6700    2916156.1    99.988192   -582.17951    162.86423    133.94869    133.67389    582.17951   0.78830366 
    6720    2917479.4    100.21065   -678.39837    162.93398      133.972    133.65404    678.39837   0.78906953 
    6740    2917026.8    100.16456   -575.44954    163.00373    133.92959    133.61843    575.44954   0.78983539 
    6760    2918464.1    99.999784   -626.83553    163.07348    133.92666       133.63    626.83553   0.79060126 
    6780    2918354.1    100.31753   -694.10064    163.14323    133.90119    133.59324    694.10064   0.79136713 
    6800    2920120.8    99.946639   -674.03583    163.21298    133.92812    133.59012    674.03583     0.792133 
    6820    2919952.8    99.968493   -647.63521    163.28272    133.87487    133.57849    647.63521   0.79289887 
    6840    2920779.1    99.893376    -672.2057    163.35247    133.86465    133.56944     672.2057   0.79366474 
    6860    2920966.8    100.14617   -659.43445    163.42222    133.85919    133.52645    659.43445   0.79443061 
    6880    2922309.6    99.993517   -770.89727    163.49197    133.86508    133.52497    770.89727   0.79519648 
    6900    2921867.2    100.12562    -697.8767    163.56172    133.82318     133.4896     697.8767   0.79596234 
    6920    2922701.3    99.996992   -777.00387    163.63147    133.83971    133.45431    777.00387   0.79672821 
    6940    2923789.7    100.24661     -753.291    163.70122    133.84024    133.44659      753.291   0.79749408 
    6960    2923909.9    100.09564   -724.11572    163.77097    133.81144    133.42396    724.11572   0.79825995 
    6980    2924609.5    100.14518   -657.31285    163.84072    133.80951      133.401    657.31285   0.79902582 
    7000    2924336.8    100.31833   -601.75349    163.91047     133.7743    133.36689    601.75349   0.79979169 
    7020    2925303.7    100.30711    -602.0972    163.98022    133.76993     133.3586     602.0972   0.80055756 
    7040    2925886.5    100.28346   -585.67355    164.04996    133.74724    133.35108    585.67355   0.80132343 
    7060    2926487.1    100.09721   -731.56179    164.11971    133.74229    133.32669    731.56179   0.80208929 
    7080    2926522.8    100.06829   -502.83747    164.18946    133.70494    133.30891    502.83747   0.80285516 
    7100    2927539.2    100.17941   -682.89783    164.25921    133.69313    133.31035    682.89783   0.80362103 
    7120    2927556.2    100.38033   -550.07534    164.32896    133.66903    133.27857    550.07534    0.8043869 
    7140    2928841.1    100.22197   -755.85908    164.39871    133.67306    133.27648    755.85908   0.80515277 
    7160    2928894.5    100.12877   -572.48476    164.46846    133.63156    133.26376    572.48476   0.80591864 
    7180    2930138.3    100.44584   -782.54528    164.53821    133.64068    133.25474    782.54528   0.80668451 
    7200    2929738.9     99.96809   -569.99475    164.60796    133.59926    133.22141    569.99475   0.80745038 
    7220    2931494.4    100.12074   -752.50236    164.67771    133.62509    133.21903    752.50236   0.80821625 
    7240    2931429.5    100.25211   -633.71504    164.74746    133.59236     133.1923    633.71504   0.80898211 
    7260    2932219.9    100.28027   -689.52641    164.81721     133.5624     133.2017    689.52641   0.80974798 
    7280    2932991.8    100.11106    -653.5542    164.88695     133.5699    133.17293     653.5542   0.81051385 
    7300    2933416.3    100.15652   -638.81167     164.9567    133.54043    133.16526    638.81167   0.81127972 
    7320    2934121.1    100.00604   -649.25368    165.02645    133.52328    133.15806    649.25368   0.81204559 
    7340    2934605.7    100.10223   -735.90186     165.0962    133.50257    133.14444    735.90186   0.81281146 
    7360    2936114.5    100.18378   -749.02098    165.16595    133.50143    133.15778    749.02098   0.81357733 
    7380    2935400.5    100.03956   -673.59537     165.2357    133.46125    133.10927    673.59537    0.8143432 
    7400    2936326.9    100.33414   -684.77423    165.30545    133.45258    133.10374    684.77423   0.81510906 
    7420    2935758.5    100.17773   -559.30005     165.3752     133.4081     133.0662    559.30005   0.81587493 
    7440      2937925     100.1568   -790.30433    165.44495    133.42634    133.09006    790.30433    0.8166408 
    7460    2937229.7    99.974317   -606.89963     165.5147    133.37548    133.05321    606.89963   0.81740667 
    7480    2938360.5    100.15413   -765.53715    165.58445    133.36822     133.0556    765.53715   0.81817254 
    7500    2938382.8    100.19514   -554.99559     165.6542    133.31495    133.05374    554.99559   0.81893841 
    7520    2939690.9    100.29072   -708.58622    165.72394     133.2993    133.07256    708.58622   0.81970428 
    7540    2940415.4    99.952672   -606.33686    165.79369    133.28695    133.06169    606.33686   0.82047015 
    7560    2940813.4     100.2473   -725.47897    165.86344    133.26812    133.04254    725.47897   0.82123601 
    7580      2941413    100.22712    -611.5363    165.93319    133.25225    133.02957     611.5363   0.82200188 
    7600    2941345.2    100.38848   -691.32575    166.00294    133.24178    132.98106    691.32575   0.82276775 
    7620    2941478.7    100.00293   -628.40429    166.07269    133.19884    132.97409    628.40429   0.82353362 
    7640    2941697.2    100.30335     -615.885    166.14244    133.18623    132.94073      615.885   0.82429949 
    7660    2942365.8    100.27777   -670.96702    166.21219    133.16428    132.93706    670.96702   0.82506536 
    7680    2943141.2    99.842463   -642.84847    166.28194    133.17172    132.90888    642.84847   0.82583123 
    7700    2944155.8    100.05778   -670.82785    166.35169    133.14603     132.9246    670.82785    0.8265971 
    7720    2944084.7     100.0605   -611.56823    166.42144    133.12154    132.89013    611.56823   0.82736297 
    7740    2944171.8     100.2997   -619.03075    166.49118    133.09755    132.86233    619.03075   0.82812883 
    7760    2944924.8     100.3406    -602.7401    166.56093    133.08945    132.84874     602.7401    0.8288947 
    7780    2945818.7    100.06381   -682.07356    166.63068    133.09327    132.82962    682.07356   0.82966057 
    7800    2945456.3    100.10995   -573.78531    166.70043    133.05748    132.79343    573.78531   0.83042644 
    7820    2946377.4     100.1634   -661.51352    166.77018    133.05065    132.78621    661.51352   0.83119231 
    7840    2947845.4    99.845714   -644.11721    166.83993    133.07055    132.77697    644.11721   0.83195818 
    7860    2947935.8    99.971268   -679.96214    166.90968    133.03821    132.75782    679.96214   0.83272405 
    7880    2948345.4    100.32944   -608.61167    166.97943    133.01511    132.74385    608.61167   0.83348992 
    7900    2949506.7    100.24074   -660.92423    167.04918    133.02112    132.73469    660.92423   0.83425578 
    7920      2950845    99.795475   -666.29772    167.11893    133.02361    132.73701    666.29772   0.83502165 
    7940    2950864.2    100.01063   -688.22385    167.18868    133.00332    132.70273    688.22385   0.83578752 
    7960    2951863.3    100.00138   -635.48479    167.25843    132.98263    132.71295    635.48479   0.83655339 
    7980      2952525    100.00975   -630.18763    167.32817    132.98257    132.68744    630.18763   0.83731926 
    8000    2954292.1    100.08131   -720.94231    167.39792     133.0069    132.68725    720.94231   0.83808513 
    8020    2954434.7    100.17288   -698.28337    167.46767    132.97371     132.6715    698.28337     0.838851 
    8040    2955839.1    100.26053   -735.56126    167.53742    132.98103      132.672    735.56126   0.83961687 
    8060    2956070.4    100.12024   -669.83851    167.60717    132.96469    132.64346    669.83851   0.84038273 
    8080    2957174.7    100.02243   -782.71708    167.67692    132.93583    132.66662    782.71708    0.8411486 
    8100    2957524.1    100.16948   -550.11324    167.74667     132.9285    132.63443    550.11324   0.84191447 
    8120    2958622.5     100.2606     -763.549    167.81642    132.94607    132.61102      763.549   0.84268034 
    8140    2959128.4    99.984521   -557.60648    167.88617    132.91968    132.60491    557.60648   0.84344621 
    8160    2959672.7    100.08094   -832.35895    167.95592    132.90487    132.58899    832.35895   0.84421208 
    8180    2959983.9    99.974691   -497.50895    168.02567    132.89768    132.55507    497.50895   0.84497795 
    8200    2960543.9      100.089   -728.63862    168.09541    132.88339    132.53938    728.63862   0.84574382 
    8220    2961414.2     99.81797   -518.41531    168.16516    132.88113    132.52561    518.41531   0.84650969 
    8240      2962936    100.03443    -655.7715    168.23491    132.87933    132.54054     655.7715   0.84727555 
    8260    2963759.4     100.1696   -643.71275    168.30466    132.86063    132.54108    643.71275   0.84804142 
    8280    2964466.1     100.3208   -613.91286    168.37441     132.8289    132.54942    613.91286   0.84880729 
    8300    2964729.9    100.09955   -607.23055    168.44416    132.81762    132.51758    607.23055   0.84957316 
    8320    2966039.3    100.18802    -570.9401    168.51391    132.82439    132.51447     570.9401   0.85033903 
    8340    2966611.8     100.2159   -612.25778    168.58366    132.80782    132.50175    612.25778    0.8511049 
    8360    2967775.7    100.04546   -622.63666    168.65341    132.80305    132.50367    622.63666   0.85187077 
    8380    2968797.9    100.06747   -672.77115    168.72316    132.78311    132.51441    672.77115   0.85263664 
    8400    2969398.6    100.40776   -654.88402    168.79291    132.76121     132.5083    654.88402    0.8534025 
    8420      2970105    100.12955    -644.3429    168.86266    132.73853    132.50772     644.3429   0.85416837 
    8440    2970777.7    100.23117   -664.59974     168.9324    132.72221    132.49931    664.59974   0.85493424 
    8460    2971580.9    100.19444   -703.99098    169.00215    132.68342    132.51916    703.99098   0.85570011 
    8480    2972344.2     100.1355   -670.08634     169.0719    132.67758    132.50434    670.08634   0.85646598 
    8500    2973254.5    99.996346   -740.52186    169.14165    132.66019    132.50763    740.52186   0.85723185 
    8520    2973622.3    100.24433   -635.16213     169.2114    132.63647    132.49309    635.16213   0.85799772 
    8540    2974230.6    100.20636   -725.91692    169.28115    132.62382    132.47823    725.91692   0.85876359 
    8560    2974876.9    100.21684   -635.45471     169.3509    132.59396    132.48227    635.45471   0.85952945 
    8580      2975578     99.98629     -669.485    169.42065    132.56129    132.49158      669.485   0.86029532 
    8600    2976238.4    99.938319    -620.5999     169.4904    132.55664     132.4711     620.5999   0.86106119 
    8620    2976782.4    100.29647   -666.26667    169.56015    132.53063     132.4668    666.26667   0.86182706 
    8640    2977495.7    100.12851   -670.81667     169.6299      132.503    132.47168    670.81667   0.86259293 
    8660    2978426.1    100.13708   -599.58282    169.69964     132.4957    132.46591    599.58282    0.8633588 
    8680    2978333.6    100.31679   -615.69161    169.76939    132.46305       132.44    615.69161   0.86412467 
    8700      2979038    100.08979   -608.74603    169.83914    132.44711    132.43287    608.74603   0.86489054 
    8720      2979675    100.22066   -643.72795    169.90889    132.43042    132.42349    643.72795   0.86565641 
    8740    2980390.5    99.992157   -599.00217    169.97864    132.40497    132.42639    599.00217   0.86642227 
    8760    2980218.7    100.05758   -667.86852    170.04839    132.37692    132.39248    667.86852   0.86718814 
    8780      2981449    100.17635   -585.55754    170.11814    132.38664    132.38312    585.55754   0.86795401 
    8800    2982634.1    100.23749   -679.49172    170.18789    132.37313    132.39497    679.49172   0.86871988 
    8820    2982600.8    100.09995   -585.77212    170.25764    132.34504    132.36735    585.77212   0.86948575 
    8840    2983158.5      100.125   -662.25508    170.32739    132.31053     132.3724    662.25508   0.87025162 
    8860    2984032.9    100.10759    -582.2646    170.39714    132.30495    132.36258     582.2646   0.87101749 
    8880    2984915.9    100.03495    -626.2029    170.46689    132.30222     132.3503     626.2029   0.87178336 
    8900    2984726.9    100.05162   -545.97917    170.53663    132.26719    132.32283    545.97917   0.87254922 
    8920    2985666.2    100.12868   -532.37939    170.60638    132.23943    132.33813    532.37939   0.87331509 
    8940    2985782.1    100.26141   -553.52631    170.67613     132.2098    132.31884    553.52631   0.87408096 
    8960    2987210.4    100.18086   -652.27239    170.74588    132.21305     132.3248    652.27239   0.87484683 
    8980    2987856.9    100.17025   -709.97131    170.81563     132.1977    132.31475    709.97131    0.8756127 
    9000    2988743.2    99.952662   -650.46953    170.88538    132.17914    132.31856    650.46953   0.87637857 
    9020    2989234.8     100.1251   -691.86165    170.95513    132.18592    132.27954    691.86165   0.87714444 
    9040      2989613    99.995045   -655.70768    171.02488    132.15864    132.26962    655.70768   0.87791031 
    9060    2990495.4    100.21338   -710.50998    171.09463    132.14251    132.27087    710.50998   0.87867618 
    9080    2991253.6    100.10942   -714.11924    171.16438    132.12958    132.26343    714.11924   0.87944204 
    9100    2991412.4    99.944298   -649.83778    171.23413    132.11405    132.23212    649.83778   0.88020791 
    9120    2992132.8    99.983285   -647.37285    171.30387    132.10593    132.21824    647.37285   0.88097378 
    9140    2993755.9    100.02587   -696.47949    171.37362    132.11189    132.23015    696.47949   0.88173965 
    9160    2994048.4     99.93995   -659.30039    171.44337    132.08696    132.21422    659.30039   0.88250552 
    9180    2994144.3    100.20067   -714.99213    171.51312    132.05234    132.19933    714.99213   0.88327139 
    9200    2995092.4    99.933731    -670.6504    171.58287    132.04417    132.19562     670.6504   0.88403726 
    9220      2995597    100.16694   -692.19427    171.65262    132.01902    132.18935    692.19427   0.88480313 
    9240    2995862.3    100.26019   -604.50752    171.72237    131.98702    132.17939    604.50752   0.88556899 
    9260    2996220.5    100.01419   -622.82541    171.79212     131.9644    132.16417    622.82541   0.88633486 
    9280    2996780.2    100.13444   -585.82278    171.86187    131.96752    132.13209    585.82278   0.88710073 
    9300    2997920.8     100.2158   -594.00564    171.93162    131.96392    132.13237    594.00564    0.8878666 
    9320    2997846.7    100.26162   -605.19354    172.00137     131.9464    132.09306    605.19354   0.88863247 
    9340    2998691.8    100.07432   -524.76305    172.07112    131.92453    132.09862    524.76305   0.88939834 
    9360    2998968.7    100.17068   -565.99147    172.14086    131.89967    132.08219    565.99147   0.89016421 
    9380      2999982    100.18997   -601.71419    172.21061    131.89193    132.08105    601.71419   0.89093008 
    9400    3000016.8    99.943371   -636.20317    172.28036      131.869    132.05206    636.20317   0.89169594 
    9420    3000592.5    100.00092   -551.49517    172.35011    131.85615    132.03682    551.49517   0.89246181 
    9440    3001080.8    100.06391   -611.09787    172.41986    131.83755    132.02351    611.09787   0.89322768 
    9460      3001505    100.08494    -541.9208    172.48961    131.81916    132.00719     541.9208   0.89399355 
    9480    3002702.1    100.34764   -650.74027    172.55936    131.83882    131.98677    650.74027   0.89475942 
    9500      3002677    100.11276   -595.96175    172.62911    131.79987    131.97133    595.96175   0.89552529 
    9520    3003257.6    100.04203    -668.6076    172.69886    131.79466    131.94876     668.6076   0.89629116 
    9540    3003553.3    100.22986   -675.39088    172.76861     131.7936    131.90954    675.39088   0.89705703 
    9560    3004787.9     100.1568   -696.88939    172.83836    131.79487    131.90923    696.88939    0.8978229 
    9580    3004228.2    99.943958   -623.89972    172.90811    131.75359    131.87276    623.89972   0.89858876 
    9600    3005178.8    100.16896   -661.00328    172.97785    131.75354    131.86135    661.00328   0.89935463 
    9620    3005424.1    100.26204   -630.18644     173.0476    131.72972     131.8428    630.18644    0.9001205 
    9640    3006778.3    100.11923   -683.03227    173.11735    131.73573    131.84304    683.03227   0.90088637 
    9660    3006750.3    100.02274   -694.75794     173.1871     131.7235    131.80096    694.75794   0.90165224 
    9680    3007475.4    100.01769   -679.30207    173.25685    131.69186    131.81133    679.30207   0.90241811 
    9700    3007664.2    100.04277   -615.35053     173.3266    131.67341    131.78503    615.35053   0.90318398 
    9720    3008127.4    99.991668   -681.90457    173.39635    131.66493    131.76079    681.90457   0.90394985 
    9740    3008885.1    99.899964    -607.3448     173.4661    131.64979    131.75613     607.3448   0.90471571 
    9760    3009921.1    100.00008   -648.72469    173.53585    131.62455    131.77378    648.72469   0.90548158 
    9780    3010184.3    100.10666   -628.15785     173.6056    131.62923    131.72768    628.15785   0.90624745 
    9800    3010273.5    100.21584    -550.1592    173.67535    131.58384     131.7241     550.1592   0.90701332 
    9820    3011616.6    100.08898   -626.14486    173.74509    131.56998    131.74384    626.14486   0.90777919 
    9840    3011798.1    100.01784   -529.51131    173.81484    131.54963    131.71928    529.51131   0.90854506 
    9860      3013013    100.24188   -643.12253    173.88459    131.54291    131.72629    643.12253   0.90931093 
    9880    3013498.8    100.32847   -527.17553    173.95434    131.51923    131.71841    527.17553    0.9100768 
    9900    3015421.4    99.845275   -621.19107    174.02409    131.55926    131.70953    621.19107   0.91084266 
    9920    3015253.5    100.13315   -532.48313    174.09384    131.52469    131.68404    532.48313   0.91160853 
    9940    3015971.4     100.3986   -672.88032    174.16359     131.4952    131.69217    672.88032    0.9123744 
    9960      3016305    100.09891   -584.34205    174.23334    131.47911    131.67013    584.34205   0.91314027 
    9980    3017638.3    100.00294   -693.24403    174.30309    131.48441    131.67031    693.24403   0.91390614 
   10000    3018110.9    99.930922   -631.52228    174.37284    131.46509    131.65759    631.52228   0.91467201 
   10020    3018774.8    100.38121   -665.96592    174.44259    131.47231    131.62667    665.96592   0.91543788 
   10040    3019104.4     100.0413   -602.16405    174.51234    131.46848    131.59226    602.16405   0.91620375 
   10060      3019708    100.14758   -618.08235    174.58208      131.441    131.59349    618.08235   0.91696962 
   10080    3020576.1    99.910219   -661.97091    174.65183    131.44929    131.57046    661.97091   0.91773548 
   10100    3020917.8    100.24388   -675.15594    174.72158    131.44704    131.53507    675.15594   0.91850135 
   10120    3021767.3    100.04891   -655.00282    174.79133    131.45451    131.51207    655.00282   0.91926722 
   10140    3021737.4    100.39642   -707.70419    174.86108    131.42769    131.48514    707.70419   0.92003309 
   10160    3023117.6    100.39738   -665.49837    174.93083    131.44794    131.47249    665.49837   0.92079896 
   10180    3022505.4    100.19636   -649.79462    175.00058    131.38675    131.45468    649.79462   0.92156483 
   10200    3023389.1    100.32586   -668.10442    175.07033    131.38735    131.44012    668.10442    0.9223307 
   10220    3024143.2    100.23778   -608.49141    175.14008    131.39118    131.41672    608.49141   0.92309657 
   10240    3024493.9     100.1845   -624.16215    175.20983    131.37116    131.39965    624.16215   0.92386243 
   10260    3024898.5    99.969013   -606.00644    175.27958    131.32883    131.40728    606.00644    0.9246283 
   10280    3025061.9    100.17009   -653.59145    175.34932    131.31453    131.37641    653.59145   0.92539417 
   10300    3025562.7    100.10041   -560.98195    175.41907    131.32442    131.33602    560.98195   0.92616004 
   10320    3025901.2    100.12365   -731.62256    175.48882    131.30594    131.31699    731.62256   0.92692591 
   10340    3026463.9    100.05305   -611.94628    175.55857    131.28782    131.30735    611.94628   0.92769178 
   10360    3027368.6    100.13814   -690.20992    175.62832    131.29217    131.29008    690.20992   0.92845765 
   10380    3027701.9    100.05848   -607.03237    175.69807    131.28171    131.26288    607.03237   0.92922352 
   10400    3027315.8    100.06488    -630.4416    175.76782     131.2496    131.22615     630.4416   0.92998938 
   10420    3027805.4    100.01887    -538.9519    175.83757    131.25847    131.18644     538.9519   0.93075525 
   10440    3028424.8    100.11944   -583.96368    175.90732    131.23951     131.1802    583.96368   0.93152112 
   10460    3028832.4    100.07218   -580.44563    175.97707    131.21461    131.17074    580.44563   0.93228699 
   10480    3029338.6    100.06516   -616.62436    176.04682    131.20532    131.14997    616.62436   0.93305286 
   10500      3029977    100.03175   -545.84426    176.11657    131.19882    131.13216    545.84426   0.93381873 
   10520    3030437.9    100.13765   -611.16469    176.18631     131.1608    131.13819    611.16469    0.9345846 
   10540    3031152.8    100.16353   -564.87882    176.25606    131.15976    131.11825    564.87882   0.93535047 
   10560      3031828    100.06001   -606.13554    176.32581    131.14022    131.11512    606.13554   0.93611634 
   10580    3032601.1    100.06746   -650.41128    176.39556    131.11026    131.12665    650.41128    0.9368822 
   10600    3033424.4    100.15269   -627.21513    176.46531    131.10722    131.11344    627.21513   0.93764807 
   10620    3034502.8    100.11219    -719.4613    176.53506     131.1267    131.08875     719.4613   0.93841394 
   10640    3035377.9    100.06704   -640.52433    176.60481      131.094    131.10747    640.52433   0.93917981 
   10660    3036188.3    100.18342   -679.47034    176.67456    131.08222    131.10248    679.47034   0.93994568 
   10680    3036962.9    100.04664   -633.05314    176.74431    131.08533    131.08106    633.05314   0.94071155 
   10700    3037734.5    100.06762   -665.92077    176.81406    131.06243    131.08554    665.92077   0.94147742 
   10720    3038158.9    100.33926    -523.2781    176.88381    131.03251    131.08208     523.2781   0.94224329 
   10740    3038263.2    100.26804   -608.92876    176.95355    131.00869    131.05874    608.92876   0.94300915 
   10760    3039327.4    100.04565   -576.99395     177.0233    130.98995    131.07174    576.99395   0.94377502 
   10780    3040434.8    100.00574    -686.9252    177.09305    130.97638    131.08144     686.9252   0.94454089 
   10800    3040648.6    100.21832   -612.28621     177.1628    130.98919    131.02622    612.28621   0.94530676 
   10820    3040920.5     100.0367    -634.5768    177.23255    130.96848    131.00709     634.5768   0.94607263 
   10840    3041594.3    100.22152   -600.54303     177.3023    130.93755    131.01551    600.54303    0.9468385 
   10860    3041753.9    99.931471   -589.51955    177.37205    130.92657    130.98185    589.51955   0.94760437 
   10880    3041909.6    100.23299   -623.16702     177.4418    130.91435    130.94928    623.16702   0.94837024 
   10900      3042533    100.15618    -600.1625    177.51155    130.87211    130.96691     600.1625    0.9491361 
   10920    3042961.6    100.00864   -646.99106     177.5813     130.8484    130.95764    646.99106   0.94990197 
   10940    3043516.1    100.22462   -566.09202    177.65105    130.84026    130.93822    566.09202   0.95066784 
   10960    3043581.2    99.983567   -563.56281     177.7208    130.82601    130.90389    563.56281   0.95143371 
   10980    3044955.7    100.07295   -569.67122    177.79054     130.8121    130.92554    569.67122   0.95219958 
   11000    3044930.8    100.09884    -624.4709    177.86029    130.78406     130.9012     624.4709   0.95296545 
   11020    3045383.1     100.2929   -595.32428    177.93004    130.75568    130.89772    595.32428   0.95373132 
   11040      3046368    100.20451   -619.50909    177.99979     130.7448    130.89964    619.50909   0.95449719 
   11060    3046444.1    100.21838   -618.89382    178.06954     130.7279    130.86855    618.89382   0.95526306 
   11080    3046977.8    99.993808   -623.54125    178.13929    130.71004     130.8581    623.54125   0.95602892 
   11100    3047862.6    100.44441   -561.71954    178.20904    130.70327    130.85165    561.71954   0.95679479 
   11120    3048602.3    100.14012   -534.08351    178.27879     130.7101    130.82536    534.08351   0.95756066 
   11140    3049159.5    99.856278   -604.66325    178.34854    130.70698    130.80122    604.66325   0.95832653 
   11160      3049930    100.09724   -560.74508    178.41829    130.66333    130.82682    560.74508    0.9590924 
   11180      3050744    100.37622    -635.4131    178.48804    130.66313     130.8108     635.4131   0.95985827 
   11200    3050864.7    100.00084   -589.70368    178.55778    130.63521    130.79282    589.70368   0.96062414 
   11220    3051060.2      100.098   -650.66111    178.62753    130.61253    130.77284    650.66111   0.96139001 
   11240    3052060.6    100.44444   -558.88422    178.69728    130.61007    130.76711    558.88422   0.96215587 
   11260    3052925.5     100.0796   -730.72673    178.76703    130.61601     130.7472    730.72673   0.96292174 
   11280    3053368.1    99.985235   -621.48654    178.83678    130.58433    130.74685    621.48654   0.96368761 
   11300    3054196.8    100.19855   -665.42855    178.90653    130.58082    130.73487    665.42855   0.96445348 
   11320    3055311.1    100.03391   -564.94838    178.97628    130.60198    130.71042    564.94838   0.96521935 
   11340    3055899.2    100.07371   -627.82764    179.04603    130.59737    130.68925    627.82764   0.96598522 
   11360    3057217.9    100.02238   -605.36064    179.11578    130.58792     130.7042    605.36064   0.96675109 
   11380      3058495    100.02252   -665.56829    179.18553    130.61576    130.68004    665.56829   0.96751696 
   11400    3059173.2    99.998855   -588.68362    179.25528    130.59308    130.68085    588.68362   0.96828283 
   11420    3059547.9    100.17552   -623.08533    179.32503    130.55499    130.68413    623.08533   0.96904869 
   11440    3060436.7    99.984533   -594.29789    179.39477     130.5371    130.68919    594.29789   0.96981456 
   11460    3060956.8     100.1069    -586.1395    179.46452      130.512    130.68572     586.1395   0.97058043 
   11480    3060830.8    99.895322    -570.2594    179.53427    130.45061    130.69105     570.2594    0.9713463 
   11500      3062510    100.24297   -596.36431    179.60402    130.47064     130.6919    596.36431   0.97211217 
   11520    3062418.2    100.21386   -524.39085    179.67377    130.45247    130.65545    524.39085   0.97287804 
   11540    3063578.7    100.07614   -548.43847    179.74352    130.44975    130.65696    548.43847   0.97364391 
   11560    3063426.9    99.981731    -540.9446    179.81327    130.43342    130.61616     540.9446   0.97440978 
   11580    3064480.5    100.12037   -583.82059    179.88302     130.4261    130.61774    583.82059   0.97517564 
   11600    3064260.2    100.26431   -549.42704    179.95277    130.36989    130.61403    549.42704   0.97594151 
   11620    3064373.8    99.992816   -577.01532    180.02252    130.34805    130.59013    577.01532   0.97670738 
   11640      3064526    100.11187   -549.47835    180.09227    130.35696    130.53712    549.47835   0.97747325 
   11660    3065376.9    100.06849   -601.19541    180.16202    130.34951    130.53027    601.19541   0.97823912 
   11680      3065517    100.26322   -578.69609    180.23176    130.33776    130.49748    578.69609   0.97900499 
   11700    3065801.6    100.21205   -648.01276    180.30151     130.3587    130.43816    648.01276   0.97977086 
   11720    3066103.9    100.21785   -589.84168    180.37126    130.34493    130.41435    589.84168   0.98053673 
   11740    3065786.5    100.20882   -592.14756    180.44101    130.28052    130.41489    592.14756   0.98130259 
   11760    3066413.3    99.891258   -557.30276    180.51076     130.2799    130.39177    557.30276   0.98206846 
   11780    3066415.5    99.911684   -609.08976    180.58051    130.24929    130.37213    609.08976   0.98283433 
   11800    3067516.2    100.19301   -662.10743    180.65026    130.25004    130.36783    662.10743    0.9836002 
   11820    3068208.8    100.07764   -687.29566    180.72001    130.26463    130.33233    687.29566   0.98436607 
   11840    3069365.6     100.2178   -663.27249    180.78976     130.2499    130.34591    663.27249   0.98513194 
   11860    3069645.7     100.3119   -633.39187    180.85951    130.22239    130.33506    633.39187   0.98589781 
   11880    3070277.7    100.19606   -649.72545    180.92926    130.24294    130.29108    649.72545   0.98666368 
   11900    3070509.8    100.17739   -557.42151      180.999    130.23626    130.25739    557.42151   0.98742955 
   11920    3071743.5    100.14597   -630.80556    181.06875    130.21465    130.28116    630.80556   0.98819541 
   11940    3072134.5    99.700285   -519.10722     181.1385     130.1972    130.26501    519.10722   0.98896128 
   11960      3073081    100.09532   -587.57085    181.20825    130.21062    130.24158    587.57085   0.98972715 
   11980    3073626.5    100.18893    -533.0389      181.278    130.17684    130.24836     533.0389   0.99049302 
   12000    3074877.2    100.16669   -603.30418    181.34775    130.16467    130.26343    603.30418   0.99125889 
   12020    3074600.4     100.0046   -479.19417     181.4175    130.14736    130.21894    479.19417   0.99202476 
   12040    3075422.5    100.27375   -618.32396    181.48725    130.12252    130.22855    618.32396   0.99279063 
   12060    3076324.5    99.922202   -507.84001      181.557    130.11694    130.22228    507.84001    0.9935565 
   12080    3076853.8    100.27641   -598.35209    181.62675    130.11281    130.19881    598.35209   0.99432236 
   12100    3076753.9    100.17575   -479.14919     181.6965    130.08546    130.17196    479.14919   0.99508823 
   12120    3076953.3    100.23137   -558.32335    181.76625    130.05579    130.16013    558.32335    0.9958541 
   12140    3077700.9    99.900665   -482.39506    181.83599    130.05147    130.14614    482.39506   0.99661997 
   12160      3078640    99.984601   -630.78686    181.90574    130.04984    130.13757    630.78686   0.99738584 
   12180    3079087.6    99.991548   -528.50646    181.97549    130.04195    130.11449    528.50646   0.99815171 
   12200    3079809.9    99.876218   -489.82304    182.04524     130.0455     130.0916    489.82304   0.99891758 
   12220    3080231.3    100.10022   -498.85925    182.11499    130.04471    130.06036    498.85925   0.99968345 
   12240    3080596.8    100.05329   -512.37904    182.18474    130.02229    130.04841    512.37904    1.0004493 
   12260    3080817.6    100.19517   -538.45123    182.25449    129.98755    130.04271    538.45123    1.0012152 
   12280    3081522.5    100.06191   -543.14267    182.32424    129.96014    130.05012    543.14267    1.0019811 
   12300    3082114.5    100.20401   -594.18867    182.39399    129.95789    130.02761    594.18867    1.0027469 
   12320    3082973.9    100.02922   -611.52778    182.46374    129.96758    130.00446    611.52778    1.0035128 
   12340    3083356.3    100.06292   -614.25607    182.53349     129.9633    129.97519    614.25607    1.0042787 
   12360    3083614.1    99.988751   -537.06099    182.60323    129.94969    129.95001    537.06099    1.0050445 
   12380    3084200.4    99.958046    -647.5835    182.67298    129.94096    129.93382     647.5835    1.0058104 
   12400    3084517.1     99.95346   -546.01053    182.74273     129.9161    129.92242    546.01053    1.0065763 
   12420    3085249.1    100.22239   -689.89619    182.81248    129.89721    129.92256    689.89619    1.0073421 
   12440    3085901.1    99.947918   -554.74755    182.88223    129.90126    129.89641    554.74755     1.008108 
   12460    3086826.1    100.08342    -590.0805    182.95198    129.89869    129.88837     590.0805    1.0088739 
   12480    3087756.3    100.06594     -592.471    183.02173    129.88578    129.89091      592.471    1.0096397 
   12500    3089058.2    100.14788   -616.34651    183.09148    129.89269    129.88926    616.34651    1.0104056 
   12520    3089868.2    100.04255   -584.26049    183.16123    129.90558    129.86096    584.26049    1.0111715 
   12540      3091020    100.12344   -585.67979    183.23098    129.88034    129.88516    585.67979    1.0119373 
   12560    3090877.5     100.1982   -556.31719    183.30073    129.86251    129.84757    556.31719    1.0127032 
   12580    3091880.7    100.08348   -497.04747    183.37048     129.8855    129.81732    497.04747    1.0134691 
   12600    3092405.5    100.09738   -532.98266    183.44022    129.85706    129.81841    532.98266     1.014235 
   12620    3093103.3    99.996877   -467.16062    183.50997    129.84466    129.81075    467.16062    1.0150008 
   12640    3094667.4    100.24403   -535.42634    183.57972     129.8759    129.79582    535.42634    1.0157667 
   12660    3095426.5    100.05548   -527.09677    183.64947    129.86763    129.78662    527.09677    1.0165326 
   12680    3096001.6     99.95142   -550.62743    183.71922    129.84962    129.77944    550.62743    1.0172984 
   12700    3097052.9    99.949882    -534.0979    183.78897    129.85407     129.7698     534.0979    1.0180643 
   12720    3097541.5    99.956988   -523.53596    183.85872    129.85053    129.74456    523.53596    1.0188302 
   12740    3098143.7    100.18499   -494.74646    183.92847    129.82558    129.74551    494.74646     1.019596 
   12760    3099017.6    100.14021   -578.10194    183.99822    129.82972    129.72877    578.10194    1.0203619 
   12780    3099301.6    100.03048   -479.35737    184.06797    129.80383    129.71736    479.35737    1.0211278 
   12800    3100060.3    100.08573   -592.60805    184.13772    129.79628    129.70751    592.60805    1.0218936 
   12820      3100806    100.19075   -559.89249    184.20746    129.78978    129.69609    559.89249    1.0226595 
   12840      3101542    100.04952    -576.7656    184.27721    129.78044    129.68711     576.7656    1.0234254 
   12860    3101697.6     100.0295   -596.08975    184.34696     129.7507    129.67425    596.08975    1.0241912 
   12880    3102251.9    100.13487   -574.70182    184.41671     129.7359    129.66316    574.70182    1.0249571 
   12900      3102635    100.02846   -611.10997    184.48646    129.71823     129.6478    611.10997     1.025723 
   12920    3102922.1    100.26856   -538.55156    184.55621    129.68412    129.64489    538.55156    1.0264889 
   12940    3102313.3    100.19892   -598.19972    184.62596    129.62617    129.62841    598.19972    1.0272547 
   12960    3103175.8    100.16518   -554.77181    184.69571     129.6096    129.63205    554.77181    1.0280206 
   12980    3103807.7    100.11124   -637.38084    184.76546    129.58748    129.63163    637.38084    1.0287865 
   13000      3104476    100.33737   -539.63099    184.83521     129.5857    129.61239    539.63099    1.0295523 
   13020    3104715.2    100.18284   -626.26299    184.90496    129.55784    129.60135    626.26299    1.0303182 
[...]
   36740    3854994.4    100.10768   -242.19857    267.62743    121.30963    118.74022    242.19857    1.9386386 
   36760      3854069    99.848107   -191.85404    267.69718    121.29117    118.69885    191.85404    1.9394045 
   36780    3854712.6    99.814099   -289.79384    267.76693     121.2797    118.69897    289.79384    1.9401703 
   36800    3855299.7    99.724124   -265.77674    267.83668    121.28645    118.67953    265.77674    1.9409362 
   36820    3855985.4     99.65575   -354.54067    267.90643    121.29486    118.66151    354.54067    1.9417021 
   36840    3855518.7    99.868223   -312.49371    267.97618    121.28103    118.62978    312.49371    1.9424679 
   36860    3855593.8    99.941142   -386.99735    268.04592    121.24617    118.63532    386.99735    1.9432338 
   36880    3856869.9    99.806639   -399.47385    268.11567    121.23684    118.65285    399.47385    1.9439997 
   36900    3857533.5    99.970071   -429.06779    268.18542    121.24007    118.63924    429.06779    1.9447655 
   36920    3857632.9    100.01082   -435.72691    268.25517    121.23397    118.61742    435.72691    1.9455314 
   36940      3858777    100.13255   -376.74273    268.32492    121.22824    118.62736    376.74273    1.9462973 
   36960    3859213.6    100.12343   -391.45445    268.39467    121.20645    118.63127    391.45445    1.9470632 
   36980    3860338.9    100.08553   -392.14131    268.46442    121.19633    118.64494    392.14131     1.947829 
   37000    3861546.7    100.33255    -406.0747    268.53417    121.20446    118.64328     406.0747    1.9485949 
   37020    3862184.2    100.16124   -450.92201    268.60392    121.21868    118.61814    450.92201    1.9493608 
   37040    3862731.5    100.15772   -388.80851    268.67367    121.20978    118.61286    388.80851    1.9501266 
   37060    3863566.5    100.09082   -422.70512    268.74342    121.19877    118.61847    422.70512    1.9508925 
   37080    3865555.1    100.19222   -379.40107    268.81317    121.22831    118.61983    379.40107    1.9516584 
   37100    3866729.7    99.904485   -417.52464    268.88291     121.2347    118.61884    417.52464    1.9524242 
   37120    3867319.3     99.84085   -349.34213    268.95266    121.21597    118.62449    349.34213    1.9531901 
   37140    3869034.5    100.03572   -304.31928    269.02241     121.2361    118.62663    304.31928     1.953956 
   37160    3869112.9    99.974959    -284.3316    269.09216    121.24018    118.59429     284.3316    1.9547218 
   37180    3869795.4    99.971683   -294.11478    269.16191    121.24605    118.57873    294.11478    1.9554877 
   37200    3870279.8    99.812387   -244.58399    269.23166      121.248    118.56094    244.58399    1.9562536 
   37220    3870056.3    100.08776    -205.8413    269.30141    121.23604    118.53508     205.8413    1.9570195 
   37240    3870893.9    100.07566   -239.14097    269.37116    121.22815    118.53776    239.14097    1.9577853 
   37260    3872187.7    99.935319   -245.95785    269.44091    121.23675    118.53826    245.95785    1.9585512 
   37280    3873048.4    100.08633   -173.15489    269.51066    121.23865    118.53208    173.15489    1.9593171 
   37300    3873027.7    100.24871   -223.83029    269.58041    121.21647    118.52246    223.83029    1.9600829 
   37320    3873070.4    99.969842   -206.03768    269.65015    121.19821    118.51096    206.03768    1.9608488 
   37340    3874415.9    99.970116   -241.96198     269.7199    121.21658    118.50351    241.96198    1.9616147 
   37360    3874725.1    100.11303   -238.03362    269.78965     121.2143    118.48456    238.03362    1.9623805 
   37380      3874685     99.94551   -230.39493     269.8594    121.18525     118.4811    230.39493    1.9631464 
   37400    3875336.7    99.791724   -278.09389    269.92915    121.17999    118.47555    278.09389    1.9639123 
   37420    3876760.1    99.746329   -286.49358     269.9989    121.18497    118.48358    286.49358    1.9646781 
   37440    3877446.4    100.14656   -322.29665    270.06865    121.16719    118.49133    322.29665     1.965444 
   37460    3877673.3    100.06723   -328.79777     270.1384    121.14933    118.48514    328.79777    1.9662099 
   37480    3878270.7    100.07889   -365.82236    270.20815    121.14858    118.47354    365.82236    1.9669757 
   37500    3879090.8    100.25581   -374.30792     270.2779    121.14213    118.47431    374.30792    1.9677416 
   37520    3880032.6    100.19549   -431.48384    270.34765    121.14379    118.47088    431.48384    1.9685075 
   37540    3880677.8    99.942628   -374.18839     270.4174    121.13599    118.46765    374.18839    1.9692734 
   37560      3880576     99.91466   -378.11958    270.48714    121.11302    118.45645    378.11958    1.9700392 
   37580    3881857.4    100.00196   -382.21284    270.55689    121.11321    118.46483    382.21284    1.9708051 
   37600    3883431.7    99.961696   -419.79784    270.62664    121.13335    118.46264    419.79784     1.971571 
   37620      3884204     99.85397   -458.47737    270.69639    121.13644    118.45264    458.47737    1.9723368 
   37640    3884304.9    99.994711   -416.16373    270.76614    121.14115     118.4206    416.16373    1.9731027 
   37660    3885401.2    99.720447   -439.63636    270.83589    121.14993    118.41493    439.63636    1.9738686 
   37680      3887068    99.950037   -389.20946    270.90564     121.1605     118.4249    389.20946    1.9746344 
   37700    3887360.8    99.837306   -375.44429    270.97539    121.15317     118.4105    375.44429    1.9754003 
   37720      3887751    99.653675   -322.65959    271.04514    121.13705    118.40767    322.65959    1.9761662 
   37740    3888554.7    99.789546   -257.50713    271.11489    121.14664    118.39231    257.50713     1.976932 
   37760    3890306.2    100.06047   -266.88814    271.18464    121.17907    118.38348    266.88814    1.9776979 
   37780    3890896.3    100.11988   -216.25073    271.25439    121.18426    118.36592    216.25073    1.9784638 
   37800      3891802    100.18098   -281.51008    271.32413    121.16765    118.37926    281.51008    1.9792296 
   37820    3893779.4    100.23071   -232.27752    271.39388    121.19881    118.37852    232.27752    1.9799955 
   37840    3894794.5    100.26887   -283.92275    271.46363    121.21124    118.36683    283.92275    1.9807614 
   37860    3894846.9    100.58625   -237.29444    271.53338     121.1976    118.35133    237.29444    1.9815273 
   37880    3895952.2    100.25519   -233.31415    271.60313    121.20801    118.34435    233.31415    1.9822931 
   37900    3897226.8    100.22529   -232.72392    271.67288    121.22648    118.33464    232.72392     1.983059 
   37920      3897816    99.894713    -268.5317    271.74263     121.2113    118.33697     268.5317    1.9838249 
   37940    3898058.3    100.13542   -265.88799    271.81238    121.21244    118.31285    265.88799    1.9845907 
   37960    3898807.1    99.784096   -297.38279    271.88213    121.22803    118.29001    297.38279    1.9853566 
   37980    3899681.5    100.11307   -287.36312    271.95188    121.21388    118.29999    287.36312    1.9861225 
   38000    3899513.1    99.933773   -349.49406    272.02163    121.19523    118.28276    349.49406    1.9868883 
   38020    3899443.5    100.28084   -277.38009    272.09137    121.21324    118.23275    277.38009    1.9876542 
   38040    3900339.6    99.901139   -289.05896    272.16112    121.21865    118.22434    289.05896    1.9884201 
   38060    3900586.7    99.720229   -289.63052    272.23087    121.20329    118.21651    289.63052    1.9891859 
   38080    3901601.9    99.838259   -382.21023    272.30062    121.20859    118.21182    382.21023    1.9899518 
   38100    3902406.8    100.25145   -298.73681    272.37037    121.21405    118.20061    298.73681    1.9907177 
   38120    3903354.3    100.16386   -399.88894    272.44012    121.21353    118.19954    399.88894    1.9914835 
   38140    3903848.7    100.11241   -367.96116    272.50987     121.2062    118.19141    367.96116    1.9922494 
   38160    3904469.5    100.08302   -379.71363    272.57962    121.19613    118.18977    379.71363    1.9930153 
   38180    3904418.9    100.03264   -342.03422    272.64937    121.18546    118.16841    342.03422    1.9937812 
   38200    3905416.7    99.754211   -385.46837    272.71912    121.17975    118.17395    385.46837     1.994547 
   38220    3905257.2     100.0767   -346.08888    272.78887    121.14689    118.17096    346.08888    1.9953129 
   38240    3906764.7    99.955294   -427.44254    272.85862    121.17418    118.15973    427.44254    1.9960788 
   38260    3906178.6    100.17404   -311.45095    272.92836    121.16108    118.12458    311.45095    1.9968446 
   38280    3907764.7    100.00023   -442.97522    272.99811    121.16915    118.13449    442.97522    1.9976105 
   38300    3907982.1    99.756994   -281.63208    273.06786     121.1528    118.12682    281.63208    1.9983764 
   38320      3909187    100.00607    -432.3661    273.13761     121.1608    118.12527     432.3661    1.9991422 
   38340    3909250.5    100.12947    -236.3229    273.20736    121.12769    118.12931     236.3229    1.9999081 
   38360    3911189.2    99.856122    -387.4937    273.27711    121.13919    118.14652     387.4937     2.000674 
   38380    3911236.6     100.0725   -246.29087    273.34686    121.11853    118.13794    246.29087    2.0014398 
   38400    3912992.2    100.17421   -343.03745    273.41661    121.13121    118.14845    343.03745    2.0022057 
   38420    3911522.9    100.14424   -145.53762    273.48636    121.08586    118.11819    145.53762    2.0029716 
   38440    3913472.6    99.896264   -337.62736    273.55611    121.10771    118.12562    337.62736    2.0037374 
   38460      3913783    99.894229   -209.06153    273.62586    121.10738    118.10519    209.06153    2.0045033 
   38480      3915069    99.992232   -292.78155     273.6956    121.10161    118.11952    292.78155    2.0052692 
   38500    3914721.9    99.933685   -183.65015    273.76535     121.0853    118.09487    183.65015    2.0060351 
   38520    3915357.8    99.785176   -313.81293     273.8351    121.08085     118.0883    313.81293    2.0068009 
   38540    3915964.2    99.730868   -217.29081    273.90485    121.07346    118.08373    217.29081    2.0075668 
   38560    3916248.2    99.986495   -346.39348     273.9746    121.05952    118.07582    346.39348    2.0083327 
   38580    3916057.9    100.03826    -252.6215    274.04435    121.04782    118.05144     252.6215    2.0090985 
   38600    3917463.7     100.0242   -305.38899     274.1141    121.05314    118.05858    305.38899    2.0098644 
   38620    3917854.5    100.21171    -256.4407    274.18385    121.04146    118.05171     256.4407    2.0106303 
   38640    3919175.5    100.33602   -330.37164     274.2536    121.04252    118.06045    330.37164    2.0113961 
   38660    3918757.2    100.35795   -285.11196    274.32335    121.02292    118.03695    285.11196     2.012162 
   38680      3919942    100.37672   -344.94155     274.3931    120.99691    118.06799    344.94155    2.0129279 
   38700    3920619.6    100.25996   -339.49892    274.46285    121.00637    118.04917    339.49892    2.0136937 
   38720    3921988.4    100.04306   -402.16732    274.53259    121.03477    118.03268    402.16732    2.0144596 
   38740    3921921.2     100.1283   -352.61176    274.60234    121.02131    118.01379    352.61176    2.0152255 
   38760    3922756.1     100.0117   -437.05217    274.67209    121.01093    118.01906    437.05217    2.0159913 
   38780    3923308.9     100.4366   -377.89337    274.74184    121.02581    117.99122    377.89337    2.0167572 
   38800      3924442    100.07403   -436.03062    274.81159    121.02638    117.99479    436.03062    2.0175231 
   38820    3924538.8    100.24652   -389.15211    274.88134     121.0092    117.98451    389.15211     2.018289 
   38840    3924943.7    99.935169   -389.75829    274.95109    121.00022     117.9755    389.75829    2.0190548 
   38860    3925369.9     100.0204    -342.1346    275.02084    120.98985     117.9685     342.1346    2.0198207 
   38880    3926471.4    100.06464   -412.49811    275.09059    120.97687    117.98434    412.49811    2.0205866 
   38900    3926183.3    99.945575   -369.31808    275.16034    120.95796    117.96421    369.31808    2.0213524 
   38920    3926770.3    100.02517   -327.08281    275.23009    120.95677    117.95311    327.08281    2.0221183 
   38940    3926826.2    100.15082   -313.60106    275.29983    120.91988    117.96089    313.60106    2.0228842 
   38960    3928115.8    100.02302   -325.84552    275.36958    120.92648    117.96329    325.84552      2.02365 
   38980    3928940.6    100.11593   -287.18915    275.43933     120.9214    117.96314    287.18915    2.0244159 
   39000    3929253.8    100.41898   -240.58529    275.50908    120.91636     117.9476    240.58529    2.0251818 
   39020    3929728.2    100.03526   -272.25242    275.57883    120.89156    117.95617    272.25242    2.0259476 
   39040    3930909.6    100.18305   -242.67551    275.64858    120.88151    117.97159    242.67551    2.0267135 
   39060    3932250.1     100.0704   -188.57819    275.71833    120.87773    117.98565    188.57819    2.0274794 
   39080    3932468.6    99.931008    -256.9897    275.78808    120.87573    117.96432     256.9897    2.0282452 
   39100    3932871.5    99.810473   -240.68157    275.85783    120.85121     117.9705    240.68157    2.0290111 
   39120    3933753.1    100.23695   -278.61997    275.92758    120.85911    117.95941    278.61997     2.029777 
   39140    3934315.7    99.903684   -276.74608    275.99733    120.85486    117.95061    276.74608    2.0305429 
   39160    3934600.6    100.13296   -308.92485    276.06708    120.83633    117.94744    308.92485    2.0313087 
   39180    3935544.7    100.13643     -258.805    276.13682     120.8167    117.96511      258.805    2.0320746 
   39200    3936214.1    100.25516   -265.93738    276.20657    120.80608    117.96574    265.93738    2.0328405 
   39220    3936440.3    99.878803   -298.15074    276.27632    120.79113    117.95733    298.15074    2.0336063 
   39240    3937317.7    100.04086    -363.9449    276.34607    120.79238    117.95263     363.9449    2.0343722 
   39260    3937811.1    99.800816   -328.50307    276.41582    120.80587    117.92447    328.50307    2.0351381 
   39280    3937982.4    99.961414   -348.33381    276.48557    120.79371    117.91172    348.33381    2.0359039 
   39300    3939366.8    99.681081   -384.77334    276.55532    120.79951    117.91776    384.77334    2.0366698 
   39320    3940929.2    99.867626   -375.31505    276.62507    120.79994    117.93437    375.31505    2.0374357 
   39340    3941947.2    99.961894   -366.31331    276.69482    120.78612    117.94858    366.31331    2.0382015 
   39360    3942243.8    100.00069   -346.45635    276.76457    120.74823    117.96474    346.45635    2.0389674 
   39380      3942196    100.07321   -327.70031    276.83432    120.73915    117.94246    327.70031    2.0397333 
   39400    3943836.2    99.865384   -311.31332    276.90406    120.74597    117.95514    311.31332    2.0404991 
   39420    3944502.6    99.955334   -374.01872    276.97381    120.74722    117.94414    374.01872     2.041265 
   39440    3945308.1    99.885996   -361.69044    277.04356    120.72642    117.95885    361.69044    2.0420309 
   39460    3946116.8    99.780102   -402.25535    277.11331     120.7199    117.95971    402.25535    2.0427968 
   39480    3946841.4    99.660737   -396.96915    277.18306    120.71125    117.96013    396.96915    2.0435626 
   39500    3946786.3    99.892659   -350.60207    277.25281    120.67447    117.96475    350.60207    2.0443285 
   39520    3947027.6    99.940603   -302.74669    277.32256    120.62805    117.98768    302.74669    2.0450944 
   39540    3948215.6    99.999277   -268.81016    277.39231    120.63891     117.9829    268.81016    2.0458602 
   39560    3948482.7    99.955368   -259.22748    277.46206    120.61793    117.98173    259.22748    2.0466261 
   39580    3948579.9    100.19707   -277.92758    277.53181    120.60745    117.96523    277.92758     2.047392 
   39600    3949251.3    99.731093   -228.08978    277.60156     120.6094    117.95374    228.08978    2.0481578 
   39620    3950723.6    99.798553   -316.63925    277.67131    120.62812    117.94977    316.63925    2.0489237 
   39640    3950627.8    99.779541   -256.74372    277.74105    120.60832    117.93665    256.74372    2.0496896 
   39660    3952174.8    99.930329   -284.72815     277.8108    120.60354    117.95788    284.72815    2.0504554 
   39680    3953279.2    99.935169   -276.39967    277.88055    120.62032    117.94481    276.39967    2.0512213 
   39700    3953629.5    99.928563   -280.55299     277.9503    120.61677    117.92914    280.55299    2.0519872 
   39720    3952854.3    99.940412   -217.13454    278.02005     120.5923    117.90036    217.13454    2.0527531 
   39740    3953362.8    99.913612   -239.05534     278.0898    120.59501    117.88329    239.05534    2.0535189 
   39760      3953317    100.02599   -236.61243    278.15955    120.60092     117.8466    236.61243    2.0542848 
   39780    3953916.9    100.11534     -264.453     278.2293    120.58466    117.85082      264.453    2.0550507 
   39800      3954617    100.15484   -329.01513    278.29905    120.60349    117.82374    329.01513    2.0558165 
   39820    3956069.2    100.08622   -386.86917     278.3688    120.61992    117.82143    386.86917    2.0565824 
   39840    3956350.4    100.21146   -334.89141    278.43855    120.60453    117.81532    334.89141    2.0573483 
   39860    3956831.9    100.05973   -329.02082     278.5083    120.58376    117.82044    329.02082    2.0581141 
   39880    3957148.3    100.16646   -318.13571    278.57804    120.60193    117.78261    318.13571      2.05888 
   39900    3957467.5    100.28927   -325.79264    278.64779    120.59319    117.77117    325.79264    2.0596459 
   39920    3957585.4    100.09611   -309.22846    278.71754    120.56712    117.77066    309.22846    2.0604117 
   39940    3958567.5    100.16164   -368.95773    278.78729    120.58164    117.75623    368.95773    2.0611776 
   39960      3959189    100.26164   -288.27542    278.85704    120.57047    117.75617    288.27542    2.0619435 
   39980      3959465    100.28727   -335.65269    278.92679    120.53458    117.76999    335.65269    2.0627093 
   40000    3960762.1    100.18572   -299.24556    278.99654    120.55233    117.76177    299.24556    2.0634752 
Loop time of 6090.4 on 64 procs for 40000 steps with 212040 atoms

Performance: 0.567 ns/day, 42.294 hours/ns, 6.568 timesteps/s
99.7% CPU use with 64 MPI tasks x 1 OpenMP threads

MPI task timing breakdown:
Section |  min time  |  avg time  |  max time  |%varavg| %total
---------------------------------------------------------------
Pair    | 1336.9     | 1869       | 2279.2     | 501.7 | 30.69
Bond    | 127.94     | 159.19     | 193.81     | 114.6 |  2.61
Kspace  | 312.69     | 755.9      | 1319.5     | 839.3 | 12.41
Neigh   | 3138.6     | 3149.8     | 3159.8     |  10.1 | 51.72
Comm    | 102.18     | 114.57     | 127.57     |  54.7 |  1.88
Output  | 2.4997     | 2.5803     | 2.6652     |   2.6 |  0.04
Modify  | 31.603     | 35.038     | 39.396     |  32.9 |  0.58
Other   |            | 4.314      |            |       |  0.07

Nlocal:        3313.12 ave        4398 max        2011 min
Histogram: 4 6 6 4 3 5 16 6 12 2
Nghost:        17615.3 ave       21787 max       14350 min
Histogram: 4 8 9 9 8 10 4 5 5 2
Neighs:    1.74271e+06 ave 2.71601e+06 max      961129 min
Histogram: 6 8 7 4 9 10 9 8 2 1

Total # of neighbors = 1.1153315e+08
Ave neighs/atom = 526.00050
Ave special neighs/atom = 5.9990568
Neighbor list builds = 40000
Dangerous builds not checked
Total wall time: 1:41:34
