LAMMPS (29 Oct 2020)
OMP_NUM_THREADS environment is not set. Defaulting to 1 thread. (../comm.cpp:94)
  using 1 OpenMP thread(s) per MPI task
####################################################
#    This program is free software: you can redistribute it and/or modify
#    it under the terms of the GNU General Public License as published by
#    the Free Software Foundation, either version 3 of the License, or
#    (at your option) any later version.
#
#    This program is distributed in the hope that it will be useful,
#    but WITHOUT ANY WARRANTY; without even the implied warranty of
#    MERCHANTABILITY or FITNESS FOR A PARTICULAR PURPOSE.  See the
#    GNU General Public License for more details.


units		real        ## defines the units style used herein. More information: https://docs.lammps.org/units.html
atom_style	full        ## defines the atom style used herein. More information: https://docs.lammps.org/atom_style.html

# Styles
pair_style      lj/cut/coul/long 15.0 10.0      ## sets the formula(s) LAMMPS uses to compute pairwise interactions; here, lennard-jones (LJ) with long-range Coulomb interaction. More: https://docs.lammps.org/pair_lj_cut_coul.html
pair_modify     shift no                        ## the shift keyword determines whether a Lennard-Jones potential is shifted at its cutoff to 0.0. More: https://docs.lammps.org/pair_modify.html
kspace_style    pppm 1.0e-4                     ## defines a long-range solver for LAMMPS to compute long-range Coulombic interactions. Note: requires use of a matching pair style, i.e. PPPM with coul/long. More: https://docs.lammps.org/kspace_style.html
bond_style      harmonic                        ## defined based off the forcefield used to construct the system; models the atoms' interactions
angle_style     harmonic
dihedral_style  opls
improper_style  cvff
special_bonds   lj 0 0 1 coul 0 0 1

read_data       300K_TRP.lmps      ## input lammps datafile, equilibriated until structure nears experimental properties
Reading data file ...
  orthogonal box = (229.50089 229.50089 229.50089) to (370.49911 370.49911 370.49911)
  4 by 4 by 4 MPI processor grid
  reading atoms ...
  212040 atoms
  reading velocities ...
  212040 velocities
  scanning bonds ...
  2 = max bonds/atom
  scanning angles ...
  6 = max angles/atom
  scanning dihedrals ...
  15 = max dihedrals/atom
  scanning impropers ...
  2 = max impropers/atom
  reading bonds ...
  236020 bonds
  reading angles ...
  399920 angles
  reading dihedrals ...
  615800 dihedrals
  reading impropers ...
  127960 impropers
Finding 1-2 1-3 1-4 neighbors ...
  special bond factors lj:    0.0      0.0      1.0     
  special bond factors coul:  0.0      0.0      1.0     
     4 = max # of 1-2 neighbors
    10 = max # of 1-3 neighbors
    14 = max # of special neighbors
  special bonds CPU = 1.560 seconds
  read_data CPU = 3.666 seconds

dielectric      1.0
neighbor    	1.0 bin
neigh_modify	delay 0 every 1 check no        ## this is to make sure that the neighbor list is updated every timestep, and the atoms don't get lost as the system is being deformed ##

timestep	    1.0                             ## unit = fs, per "real" unit style
run_style       verlet                          ## defines algorithm used for simulation computation; verlet integration is a numerical method used to integrate Newton's equations of motion.

variable stress equal press*-1                       ## computes stress as the negative of press values
variable engStrain equal (lx-91.07191)/91.07191      ## computes engineering strain; lx_0 must be found and inputted manually (for now)

thermo		    20                                                               ## output log data (headers in thermo_style), recorded at every timestep in numList.txt
thermo_style    custom step vol temp press lx ly lz v_stress v_engStrain         ## data headers of output log file. More: https://docs.lammps.org/thermo_style.html

################# Deformation ##################

fix 1 all npt temp 300 300 100 y 1 1 100.0 z 1 1 100.0      ## stress normal to the x direction can vary; external pressure (y and z) = 1atm ##

fix 2 all deform 1 x scale 2.0 remap x                      ## sets a uniaxial (x-direction) deformation in motion, scaling a set amount (here, 4.0x) the initial length


################# Dumping ##################

reset_timestep 0

dump dump2 all custom 20000 sim.lammpstrj id mol type q xs ys zs ix iy iz

restart 40000 PMP.restart

run 		400000              ## this depends on the overall strain rate, where strain rate = deformScale / runTimeSteps (consider units!)
PPPM initialization ...
WARNING: System is not charge neutral, net charge = 0.034008 (../kspace.cpp:313)
  using 12-bit tables for long-range coulomb (../kspace.cpp:328)
  G vector (1/distance) = 0.19909148
  grid = 36 36 36
  stencil order = 5
  estimated absolute RMS force accuracy = 0.041605583
  estimated relative force accuracy = 0.00012529398
  using double precision FFTW3
  3d grid and FFT values/proc = 2744 900
Neighbor list info ...
  update every 1 steps, delay 0 steps, check no
  max neighbors/atom: 2000, page size: 100000
  master list distance cutoff = 16
  ghost atom cutoff = 16
  binsize = 8, bins = 18 18 18
  1 neighbor lists, perpetual/occasional/extra = 1 0 0
  (1) pair lj/cut/coul/long, perpetual
      attributes: half, newton on
      pair build: half/bin/newton
      stencil: half/bin/3d/newton
      bin: standard
Per MPI rank memory allocation (min/avg/max) = 38.91 | 39.47 | 40.11 Mbytes
Step Volume Temp Press Lx Ly Lz v_stress v_engStrain 
       0    2803115.4    300.00827    14569.181    140.99823    140.99823    140.99823   -14569.181   0.54820767 
      20      2823664    306.75819    2550.5116    141.00528    141.54407    141.47705   -2550.5116   0.54828508 
      40    2845325.7    305.07037    1377.1033    141.01233    142.09365    142.00389   -1377.1033   0.54836249 
      60    2840516.5    305.36815    299.78836    141.01938    141.96668    141.88357   -299.78836    0.5484399 
      80    2833451.5    305.16078    218.15951    141.02643    141.78142    141.70852   -218.15951   0.54851731 
     100    2833797.3    305.76079    141.10115    141.03348    141.81323    141.68694   -141.10115   0.54859472 
     120    2832739.7    303.93741   -523.91838    141.04053    141.73746    141.70269    523.91838   0.54867213 
     140      2826628    303.11363   -664.36992    141.04758    141.59322    141.53393    664.36992   0.54874954 
     160    2821914.4    302.64436   -820.56068    141.05463    141.47336    141.41055    820.56068   0.54882695 
     180    2824555.3    303.37566   -1042.8073    141.06168    141.54279    141.46639    1042.8073   0.54890436 
     200    2819744.5    303.18793    -415.6834    141.06873    141.42176    141.33924     415.6834   0.54898177 
     220    2819660.1     302.2632    -400.3956    141.07578    141.42468    141.32503     400.3956   0.54905918 
     240    2819311.6     302.5334    249.27582    141.08283    141.40527     141.3199   -249.27582   0.54913659 
     260    2813786.5    302.11027    754.85678    141.08988    141.24958    141.19135   -754.85678     0.549214 
     280    2815703.8    301.25859    738.93108    141.09693     141.2943    141.23579   -738.93108   0.54929142 
     300    2816148.5    300.91191   -303.68504    141.10398     141.2873    141.25804    303.68504   0.54936883 
     320      2814553    301.54739    675.55184    141.11103    141.21156    141.24667   -675.55184   0.54944624 
     340    2813603.6    301.20223   -471.07643    141.11808    141.19056    141.21297    471.07643   0.54952365 
     360    2813329.1    300.35831   -164.91528    141.12513    141.18136    141.20135    164.91528   0.54960106 
     380      2816584    300.94449    84.639723    141.13218    141.22648    141.31248   -84.639723   0.54967847 
     400    2816021.1     299.9834   -202.73773    141.13923    141.22187     141.2818    202.73773   0.54975588 
     420    2815778.3    300.10705   -35.775361    141.14628    141.20572    141.27872    35.775361   0.54983329 
     440    2815584.2    299.66088    410.68003    141.15333    141.21121    141.25643   -410.68003    0.5499107 
     460    2817514.1    299.70536   -61.612237    141.16038    141.22536    141.33203    61.612237   0.54998811 
     480    2815964.3    299.29149    34.384067    141.16743    141.16031    141.31232   -34.384067   0.55006552 
     500    2816093.4    299.56712    207.02498    141.17448    141.14604    141.32603   -207.02498   0.55014293 
     520    2816936.4    298.78467    198.69803    141.18153    141.18206    141.32521   -198.69803   0.55022034 
     540    2820759.3    298.97096   -262.02485    141.18858    141.27076    141.42109    262.02485   0.55029775 
     560    2821359.2    299.06102   -353.27443    141.19563    141.28629    141.42855    353.27443   0.55037516 
     580    2820111.6    299.52881   -78.789684    141.20268    141.23785    141.40744    78.789684   0.55045257 
     600    2821855.4    299.26765   -16.255936    141.20973    141.27247    141.45315    16.255936   0.55052998 
     620    2821758.8    298.60432   -302.33438    141.21678     141.2381    141.47566    302.33438   0.55060739 
     640    2821422.1    298.49079    142.91885    141.22383    141.22795    141.46188   -142.91885    0.5506848 
     660    2822446.8    299.15307   -32.182547    141.23088     141.2433    141.49082    32.182547   0.55076221 
     680    2821634.2    299.67649    151.74287    141.23793    141.21222    141.47415   -151.74287   0.55083962 
     700    2822374.2    299.58911    6.0435409    141.24498    141.23746    141.47891   -6.0435409   0.55091703 
     720    2823363.3    300.40365    164.10568    141.25203    141.24602    141.51284   -164.10568   0.55099444 
     740    2823586.2    300.15592   -46.971118    141.25908    141.23627    141.52672    46.971118   0.55107185 
     760    2823185.1    300.19743    300.27823    141.26613    141.22979    141.50604   -300.27823   0.55114926 
     780    2824212.5     301.0136   -152.76392    141.27318    141.26557    141.51463    152.76392   0.55122667 
     800    2824815.7     299.1912    315.35164    141.28023     141.2814    141.52193   -315.35164   0.55130408 
     820    2823493.8    300.26166    36.996944    141.28728    141.25446    141.47563   -36.996944    0.5513815 
     840    2824388.8     299.2704    51.096851    141.29433    141.23741    141.53049   -51.096851   0.55145891 
     860    2824886.6    300.34329    327.00479    141.30138    141.24464    141.54113   -327.00479   0.55153632 
     880    2824148.9    300.51069    444.77373    141.30843    141.22167    141.52012   -444.77373   0.55161373 
     900    2825176.6    299.83956    204.29207    141.31548    141.26068    141.52546   -204.29207   0.55169114 
     920    2826615.9    300.15216    82.884307    141.32253     141.2775    141.57364   -82.884307   0.55176855 
     940      2825698     300.5513    28.678663    141.32958    141.25456    141.54359   -28.678663   0.55184596 
     960    2826462.3    300.11684   -101.60518    141.33663     141.3029    141.52638    101.60518   0.55192337 
     980    2826838.7    301.03508   -14.167396    141.34368    141.30374    141.53733    14.167396   0.55200078 
    1000    2825729.6    299.62711    186.98856    141.35073    141.24338     141.5352   -186.98856   0.55207819 
    1020    2826993.2    300.19987    83.473922    141.35778    141.27086    141.56388   -83.473922    0.5521556 
    1040    2824962.3    299.81861    124.31111    141.36482    141.20938    141.51672   -124.31111   0.55223301 
    1060    2827083.3    300.02185   -140.31861    141.37187    141.24486    141.58033    140.31861   0.55231042 
    1080    2826991.5    300.07916   -161.36569    141.37892    141.26067    141.55283    161.36569   0.55238783 
    1100    2825781.2    300.12682   -178.94501    141.38597    141.26942    141.47641    178.94501   0.55246524 
    1120    2825666.2    300.37323    210.49176    141.39302    141.26848    141.46454   -210.49176   0.55254265 
    1140    2826389.6    299.84932     -191.898    141.40007    141.29961    141.46253      191.898   0.55262006 
    1160    2826688.2    299.16965   -100.88727    141.40712    141.30307    141.46696    100.88727   0.55269747 
    1180    2824985.8    300.18296   -6.7693731    141.41417     141.2346    141.44325    6.7693731   0.55277488 
    1200    2825488.7     299.7128   -170.31619    141.42122    141.24293    141.45303    170.31619   0.55285229 
    1220    2824441.5    299.31788    101.99749    141.42827    141.21242    141.42411   -101.99749    0.5529297 
    1240      2824796      299.318     40.61416    141.43532    141.18665    141.46063    -40.61416   0.55300711 
    1260    2823286.8     300.2134    67.355449    141.44237    141.12166    141.44311   -67.355449   0.55308452 
    1280    2823775.8    299.23001    111.48096    141.44942    141.13544    141.44674   -111.48096   0.55316193 
    1300    2823636.2    299.07976   -86.627556    141.45647    141.13054    141.43761    86.627556   0.55323934 
    1320    2824433.8    299.97731    -180.1861    141.46352    141.14032    141.46071     180.1861   0.55331675 
    1340    2824615.3    299.96564   -100.12526    141.47057      141.166    141.43702    100.12526   0.55339417 
    1360    2824138.2    299.22274    23.475681    141.47762    141.14465    141.42746   -23.475681   0.55347158 
    1380    2824347.4    299.67001   -74.834378    141.48467    141.13544    141.44012    74.834378   0.55354899 
    1400    2823281.2    299.77884    234.24003    141.49172    141.13443     141.3807   -234.24003    0.5536264 
    1420    2825288.3    299.93692   -111.56579    141.49877      141.212    141.39645    111.56579   0.55370381 
    1440      2824357    300.63741    8.0811678    141.50582    141.17984    141.37499   -8.0811678   0.55378122 
    1460    2824425.5     299.8417    156.47327    141.51287    141.19155    141.35966   -156.47327   0.55385863 
    1480    2825429.2     301.0121    11.502074    141.51992    141.23751    141.35682   -11.502074   0.55393604 
    1500    2826620.9     300.5403    -45.35095    141.52697    141.24954    141.39737     45.35095   0.55401345 
    1520    2825473.1    299.90076   -114.67221    141.53402     141.2071    141.37539    114.67221   0.55409086 
    1540    2826506.2    299.53629   -160.07641    141.54107    141.23149    141.39561    160.07641   0.55416827 
    1560      2826756    300.77732    -145.3571    141.54812    141.21865    141.41392     145.3571   0.55424568 
    1580    2826990.3    300.31872   -171.77805    141.55517    141.23289    141.40434    171.77805   0.55432309 
    1600    2826105.6    300.51521   -30.841273    141.56222     141.2257    141.36024    30.841273    0.5544005 
    1620    2827757.5    299.60616   -138.95445    141.56927    141.25025    141.41124    138.95445   0.55447791 
    1640    2828072.6    299.95291   -41.961602    141.57632    141.25811    141.41209    41.961602   0.55455532 
    1660    2826331.7    301.00865   -40.792396    141.58337    141.22285    141.35328    40.792396   0.55463273 
    1680    2827551.6    301.29942   -28.484435    141.59042    141.23366    141.39643    28.484435   0.55471014 
    1700    2827309.4    300.20963   -181.98638    141.59747    141.19523    141.41575    181.98638   0.55478755 
    1720    2826889.8    299.58226    88.944487    141.60452    141.19924    141.38372   -88.944487   0.55486496 
    1740    2825829.6    300.08872    59.122299    141.61157    141.17382    141.34911   -59.122299   0.55494237 
    1760    2826535.7     299.3548    106.08166    141.61862    141.17144    141.37977   -106.08166   0.55501978 
    1780    2826407.5    299.64717   -62.422633    141.62567    141.18604    141.35171    62.422633   0.55509719 
    1800    2826736.9    298.93428   -136.08906    141.63272     141.1938    141.35337    136.08906    0.5551746 
    1820    2825801.5    299.34752    56.702872    141.63977    141.15317    141.34023   -56.702872   0.55525201 
    1840    2827022.4    299.68878    182.48593    141.64682    141.20081    141.34655   -182.48593   0.55532942 
    1860      2826069    299.20758    11.127101    141.65387    141.13222    141.36053   -11.127101   0.55540684 
    1880    2826406.9    299.25744   -111.87348    141.66092    141.14504    141.35755    111.87348   0.55548425 
    1900      2827059    299.69605    -22.98144    141.66797    141.16348    141.36465     22.98144   0.55556166 
    1920    2826473.5    299.49324   -142.40552    141.67502    141.14335     141.3485    142.40552   0.55563907 
    1940      2827033     299.0472   -144.23067    141.68207    141.14914    141.36364    144.23067   0.55571648 
    1960    2825438.9    299.28697   -190.39748    141.68912    141.09104    141.33509    190.39748   0.55579389 
    1980    2828522.9     300.4151   -276.89832    141.69617    141.17705    141.39612    276.89832    0.5558713 
    2000    2827174.8    299.62207   -206.39167    141.70322    141.16013    141.33863    206.39167   0.55594871 
    2020    2827814.5      299.294   -307.78016    141.71027    141.17428    141.34941    307.78016   0.55602612 
    2040    2826919.1    299.57202   -131.55394    141.71732    141.12852    141.34344    131.55394   0.55610353 
    2060    2827912.1    300.53935   -254.08063    141.72437      141.109    141.40562    254.08063   0.55618094 
    2080    2828151.8    300.02775   -76.123132    141.73142    141.10081    141.41877    76.123132   0.55625835 
    2100    2827462.4    300.33577   -111.45443    141.73847    141.13378    141.34425    111.45443   0.55633576 
    2120    2828654.2    300.73107   -52.247984    141.74552    141.14861    141.38193    52.247984   0.55641317 
    2140    2827851.5    300.34236   -22.462296    141.75257    141.09457    141.38891    22.462296   0.55649058 
    2160    2828488.6    300.35054   -116.23005    141.75962    141.11165    141.39662    116.23005   0.55656799 
    2180    2828593.9    300.92066    25.919673    141.76667    141.09847    141.40806   -25.919673    0.5566454 
    2200    2828941.8    300.62037    -112.8812    141.77372    141.11081    141.40606     112.8812   0.55672281 
    2220    2828084.9    300.79644     4.055802    141.78077    141.05198    141.41515    -4.055802   0.55680022 
    2240    2828437.2    300.39059    -66.66024    141.78782    141.05862    141.41907     66.66024   0.55687763 
    2260      2827245    299.74505    118.32925    141.79487    141.06696    141.34408   -118.32925   0.55695504 
    2280    2826628.1    300.68836   0.77643984    141.80192     141.0689    141.30427  -0.77643984   0.55703245 
    2300    2826768.7    299.84368   -11.238142    141.80897    141.07557    141.29759    11.238142   0.55710986 
    2320    2827136.8    299.95216    18.641379    141.81602    141.07488    141.30965   -18.641379   0.55718727 
    2340    2825699.8    300.29699    18.260359    141.82307    141.01845    141.28733   -18.260359   0.55726468 
    2360      2825309    299.73639    124.68368    141.83012    141.01713    141.26209   -124.68368   0.55734209 
    2380    2826125.3    300.31725   -99.923829    141.83717    141.00664    141.30639    99.923829   0.55741951 
    2400    2825948.1    300.07723   -32.873978    141.84422    141.00179    141.29536    32.873978   0.55749692 
    2420    2825385.5    299.52033   -72.847306    141.85127    140.99017    141.27186    72.847306   0.55757433 
    2440    2824952.5    299.39165   -51.029728    141.85832    140.97511    141.25828    51.029728   0.55765174 
    2460    2825697.7    299.57456    36.092607    141.86537    141.01097    141.25258   -36.092607   0.55772915 
    2480    2825547.2    299.75423   -136.79549    141.87242    140.98676     141.2623    136.79549   0.55780656 
    2500    2825285.9    300.23402    93.821605    141.87947    140.97027    141.25874   -93.821605   0.55788397 
    2520    2824498.5     299.9087    74.430984    141.88652    140.92997    141.25274   -74.430984   0.55796138 
    2540    2826633.7    299.64681    17.055348    141.89357    140.96034    141.32203   -17.055348   0.55803879 
    2560    2826304.6    299.75049    17.284267    141.90062    140.97369    141.28518   -17.284267    0.5581162 
    2580      2826865     300.4665    71.350147    141.90767    140.99124    141.28859   -71.350147   0.55819361 
    2600    2825978.1    300.76513   -25.937809    141.91472    140.95672    141.27183    25.937809   0.55827102 
    2620    2826400.8    299.73041   -93.745745    141.92177    140.98595    141.25665    93.745745   0.55834843 
    2640    2826877.4    300.06238   -19.857405    141.92882    140.99738    141.26199    19.857405   0.55842584 
    2660    2825924.9    299.35928     12.67923    141.93587     140.9346    141.27029    -12.67923   0.55850325 
    2680    2826710.6    300.14462      80.6788    141.94292    140.98679    141.25024     -80.6788   0.55858066 
    2700    2826318.1     299.9653    138.44985    141.94997    140.98188    141.22853   -138.44985   0.55865807 
    2720      2827195    300.68547    150.80427    141.95702    141.02494     141.2222   -150.80427   0.55873548 
    2740    2825538.8    300.56353    291.89002    141.96407    140.99273    141.16471   -291.89002   0.55881289 
    2760    2826976.5    300.15808    24.063102    141.97112    141.05683    141.16534   -24.063102    0.5588903 
    2780    2827035.9    299.92974    92.013176    141.97817    141.03644     141.1817   -92.013176   0.55896771 
    2800    2827538.4    300.70882   -176.97886    141.98522    141.03096    141.20528    176.97886   0.55904512 
    2820      2827986    299.99567   -140.13812    141.99227    141.05175     141.1998    140.13812   0.55912253 
    2840    2828860.1    300.86558   -238.78273    141.99932    141.06753    141.22063    238.78273   0.55919994 
    2860    2828128.6     300.7149    50.508372    142.00637    141.07194    141.17269   -50.508372   0.55927735 
    2880    2827168.3    300.84746   -188.08383    142.01342    141.03838    141.15133    188.08383   0.55935476 
    2900      2827993    300.67057   -151.37297    142.02047     141.0524    141.17146    151.37297   0.55943218 
    2920    2827687.4    300.93529    -286.5105    142.02752    141.03153    141.17009     286.5105   0.55950959 
    2940    2828127.9    300.33162   -343.42992    142.03457    141.03637    141.18023    343.42992     0.559587 
    2960    2827383.5    299.72717   -253.84165    142.04162    140.99736    141.17511    253.84165   0.55966441 
    2980    2828562.9    299.74876   -185.31918    142.04867    141.03656    141.18774    185.31918   0.55974182 
    3000    2828335.8    300.28533   -141.40569    142.05572    141.02564    141.18032    141.40569   0.55981923 
    3020    2827344.2    299.97621    -106.6326    142.06277    141.02547    141.12399     106.6326   0.55989664 
    3040    2827788.3    300.10693   -72.330058    142.06982    141.04269    141.12192    72.330058   0.55997405 
    3060    2828314.2    299.13878   -156.78512    142.07687    141.00955    141.17434    156.78512   0.56005146 
    3080    2827148.7    300.48618   -123.02184    142.08392    140.95588    141.16289    123.02184   0.56012887 
    3100    2827553.2    299.41375   -164.27642    142.09097    140.93899      141.193    164.27642   0.56020628 
    3120    2828958.8    300.10203   -123.97701    142.09802     140.9697     141.2254    123.97701   0.56028369 
    3140    2828163.9    299.74868    31.672743    142.10507    140.97532    141.17309   -31.672743    0.5603611 
    3160    2827752.1     300.7278   -28.349378    142.11212    140.95113    141.16976    28.349378   0.56043851 
    3180    2827563.7    300.25386    68.692613    142.11917    140.94453    141.15996   -68.692613   0.56051592 
    3200    2827461.5    299.55076   -34.176494    142.12622    140.94639      141.146    34.176494   0.56059333 
    3220    2826937.7    300.05429    66.103144    142.13327    140.87686    141.18249   -66.103144   0.56067074 
    3240    2827438.8    299.87939   -90.423704    142.14032    140.88307    141.19429    90.423704   0.56074815 
    3260    2827516.8    299.20176   -87.044807    142.14737    140.88116     141.1931    87.044807   0.56082556 
    3280    2828682.5    298.91707   -205.77481    142.15442    140.89298    141.23245    205.77481   0.56090297 
    3300    2828089.2    300.00236    -124.4535    142.16146    140.83681    141.25214     124.4535   0.56098038 
    3320    2828380.2    300.03525    32.917026    142.16851    140.82988    141.26662   -32.917026   0.56105779 
    3340    2828472.9    299.55536   -64.252398    142.17556    140.83542    141.25868    64.252398    0.5611352 
    3360    2828289.4    300.25891    10.422159    142.18261    140.84725    141.23066   -10.422159   0.56121261 
    3380    2827993.5    299.76958    29.593495    142.18966    140.85248    141.20363   -29.593495   0.56129002 
    3400    2828282.8    299.32661    159.79699    142.19671    140.87073    141.19278   -159.79699   0.56136743 
    3420    2829077.8    300.01332   -30.957429    142.20376    140.88615    141.21002    30.957429   0.56144485 
    3440    2829742.5    300.45027   -129.92207    142.21081    140.92647    141.19578    129.92207   0.56152226 
    3460    2831261.1    300.83291   -214.70929    142.21786     140.9992    141.19169    214.70929   0.56159967 
    3480    2830761.9    301.98676   -258.75487    142.22491    140.96911    141.18992    258.75487   0.56167708 
    3500      2830992     301.5838   -171.53448    142.23196    140.98494    141.17855    171.53448   0.56175449 
    3520    2830695.8    300.97722   -257.22539    142.23901    140.99128    141.15043    257.22539    0.5618319 
    3540    2831228.7    300.72302   -55.205889    142.24606    141.01208    141.14918    55.205889   0.56190931 
    3560    2831169.6    300.21736   -117.04925    142.25311    141.01634    141.13498    117.04925   0.56198672 
    3580    2831832.5    300.73382     56.09948    142.26016    140.99743    141.17996    -56.09948   0.56206413 
    3600    2831984.5    300.81367   -50.867338    142.26721    141.01575     141.1622    50.867338   0.56214154 
    3620    2831636.4    300.24857   -96.805088    142.27426    141.00622     141.1474    96.805088   0.56221895 
    3640    2831980.9    300.92914   -172.78144    142.28131    141.00307    141.16073    172.78144   0.56229636 
    3660    2831562.4    300.31501   -304.06454    142.28836    140.99517    141.14078    304.06454   0.56237377 
    3680    2832480.1     300.6644   -255.56375    142.29541    141.01312    141.16156    255.56375   0.56245118 
    3700    2831765.9    300.22951   -257.23187    142.30246    140.98377    141.14835    257.23187   0.56252859 
    3720    2832436.5    300.08167   -164.19484    142.30951    140.99405    141.16449    164.19484     0.562606 
    3740    2832286.6    300.18209   -106.78727    142.31656    140.95984    141.18428    106.78727   0.56268341 
    3760      2831374    298.95956   -87.386787    142.32361    140.91154    141.18018    87.386787   0.56276082 
    3780    2831706.1    299.58226   -147.78935    142.33066    140.94108    141.16015    147.78935   0.56283823 
    3800      2832065      300.487   -139.24267    142.33771    140.93452    141.17762    139.24267   0.56291564 
    3820    2832539.5    300.13357   -211.74636    142.34476    140.93973    141.18906    211.74636   0.56299305 
    3840    2832554.8    299.55459   -302.18225    142.35181    140.88093    141.24176    302.18225   0.56307046 
    3860    2832307.3    300.29854   -109.88074    142.35886    140.87797    141.22539    109.88074   0.56314787 
    3880    2832811.7    300.34704    33.112841    142.36591    140.95588    141.16547   -33.112841   0.56322528 
    3900    2832449.3    300.02841    52.548625    142.37296    140.93903     141.1573   -52.548625   0.56330269 
    3920    2832236.1     300.0519    48.644726    142.38001    140.91269    141.16607   -48.644726    0.5633801 
    3940    2832603.2    299.32309   -14.974396    142.38706    140.89906    141.19104    14.974396   0.56345752 
    3960      2832612    299.75588     8.833461    142.39411    140.92694    141.15655    -8.833461   0.56353493 
    3980    2832189.4    299.69998   -25.456679    142.40116    140.92921    141.12623    25.456679   0.56361234 
    4000      2831041    300.33611    64.745726    142.40821    140.91024    141.08101   -64.745726   0.56368975 
    4020    2831554.7    300.87279      15.7049    142.41526    140.92458    141.08527     -15.7049   0.56376716 
    4040    2831920.4    300.28444   -38.613612    142.42231    140.94939    141.07167    38.613612   0.56384457 
    4060    2830739.2    300.06307   -41.113972    142.42936    140.93112    141.02413    41.113972   0.56392198 
    4080    2830649.9    301.19207    -126.3013    142.43641    140.95462    140.98919     126.3013   0.56399939 
    4100      2831839    300.70354   -82.786922    142.44346    140.93079    141.06528    82.786922    0.5640768 
    4120    2830828.5    300.17854    89.670449    142.45051    140.85843    141.08041   -89.670449   0.56415421 
    4140    2831601.6    300.77239   -95.852276    142.45756    140.86599    141.10438    95.852276   0.56423162 
    4160    2831776.9    300.15204   -89.658242    142.46461    140.86567    141.10645    89.658242   0.56430903 
    4180    2831558.5    300.50905   -82.002097    142.47166    140.82881    141.12552    82.002097   0.56438644 
    4200    2831885.6    300.54236   -213.02632    142.47871     140.8314    141.13224    213.02632   0.56446385 
    4220      2830717    300.83712   -108.21366    142.48576    140.79143    141.10707    108.21366   0.56454126 
    4240    2831495.4    300.35933    -138.9225    142.49281    140.82322    141.10702     138.9225   0.56461867 
    4260    2831565.2    300.32375   -221.12792    142.49986    140.81665    141.11011    221.12792   0.56469608 
    4280    2830086.7    299.87014   -76.106582    142.50691    140.72561    141.12069    76.106582   0.56477349 
    4300      2830025    299.09061   -103.76321    142.51396    140.68112    141.15526    103.76321    0.5648509 
    4320    2830624.7    300.46046   -15.944461    142.52101    140.72742    141.13173    15.944461   0.56492831 
    4340    2829074.5    300.56954    68.905004    142.52806    140.67735    141.09767   -68.905004   0.56500572 
    4360    2829513.3    299.81656     46.30312    142.53511    140.68492    141.10498    -46.30312   0.56508313 
    4380    2829828.6    300.37806   -46.887671    142.54216    140.69147    141.10715    46.887671   0.56516054 
    4400    2829492.1    299.49937    53.639236    142.54921    140.66763     141.1073   -53.639236   0.56523795 
    4420      2828507    299.69301   -21.293389    142.55626    140.64185    141.07705    21.293389   0.56531536 
    4440    2828873.3    299.79608   -140.43526    142.56331    140.66339    141.06675    140.43526   0.56539277 
    4460    2829705.4    299.35148   -181.30886    142.57036    140.67446    141.09016    181.30886   0.56547019 
    4480    2829319.3    299.39227   -170.75138    142.57741    140.63334    141.10518    170.75138    0.5655476 
    4500      2829676    299.32786   -52.418925    142.58446    140.66748    141.08174    52.418925   0.56562501 
    4520    2830014.3    299.38908   -205.11806    142.59151    140.67841    141.08067    205.11806   0.56570242 
    4540    2830781.9    299.95984    7.0743505    142.59856    140.68723    141.10311   -7.0743505   0.56577983 
    4560    2830268.5    299.62685   -28.412024    142.60561    140.64219    141.11573    28.412024   0.56585724 
    4580      2829893    299.83736    49.984501    142.61266    140.64176    141.09045   -49.984501   0.56593465 
    4600    2830879.7    299.94604   -31.793103    142.61971    140.68177    141.09254    31.793103   0.56601206 
    4620    2830970.2    300.35034   -77.200688    142.62676    140.67751    141.09435    77.200688   0.56608947 
    4640      2830055    299.88899   -87.008529    142.63381    140.66986    141.04943    87.008529   0.56616688 
    4660    2830621.3    300.65127   -107.10794    142.64086    140.69603    141.04444    107.10794   0.56624429 
    4680    2831251.4    300.37393   -179.59793    142.64791    140.70485    141.06002    179.59793    0.5663217 
    4700      2832098    300.78827   -89.147219    142.65496    140.70096    141.09914    89.147219   0.56639911 
    4720      2832323    300.90048   -119.26345    142.66201    140.70773    141.09658    119.26345   0.56647652 
    4740    2832718.5    300.85187   -102.10915    142.66906    140.72325    141.09374    102.10915   0.56655393 
    4760    2833570.7    300.63087   -127.66767    142.67611    140.74326    141.10915    127.66767   0.56663134 
    4780    2833223.5    300.75308   -89.364068    142.68316    140.77153    141.05657    89.364068   0.56670875 
    4800    2832976.6    301.12523   -169.80247    142.69021    140.79751    141.01128    169.80247   0.56678616 
    4820    2833401.6    300.78384   -86.146161    142.69726    140.82199    141.00095    86.146161   0.56686357 
    4840    2833450.3    300.10993   -190.40222    142.70431    140.79416    141.02427    190.40222   0.56694098 
    4860    2833477.7    300.54025   -93.965742    142.71136    140.82899     140.9838    93.965742   0.56701839 
    4880    2833779.5    299.70022   -198.84137    142.71841    140.86168    140.95912    198.84137    0.5670958 
    4900    2833048.5    300.17102    9.9950328    142.72546    140.82332    140.95419   -9.9950328   0.56717321 
    4920    2832678.1    299.30187     129.4064    142.73251    140.87109    140.88101    -129.4064   0.56725062 
    4940    2832536.9    299.11214    212.84624    142.73956    140.84573    140.89239   -212.84624   0.56732803 
    4960      2833465    298.93697    67.680424    142.74661    140.84443     140.9329   -67.680424   0.56740544 
    4980    2832815.2    299.77655     175.4174    142.75366    140.87463    140.86341    -175.4174   0.56748286 
    5000    2832500.7    300.08152    156.82478    142.76071    140.85596    140.85948   -156.82478   0.56756027 
    5020    2833332.4    299.70805    135.49867    142.76776    140.85397    140.89588   -135.49867   0.56763768 
    5040      2832600     300.2597     51.36713    142.77481    140.83329    140.87318    -51.36713   0.56771509 
    5060    2832623.2    299.69098     40.60075    142.78186    140.83583    140.86484    -40.60075    0.5677925 
    5080    2832228.2    299.28061   -103.91339    142.78891    140.82206    140.85203    103.91339   0.56786991 
    5100    2833235.5    299.68364   -208.61152    142.79596    140.81871    140.89851    208.61152   0.56794732 
    5120    2833295.5     300.1024   -303.91575    142.80301    140.82164    140.89161    303.91575   0.56802473 
    5140    2833036.9    299.44979   -161.09992    142.81006    140.81094     140.8825    161.09992   0.56810214 
    5160    2832538.7    299.63122   -200.95056    142.81711    140.78362     140.8781    200.95056   0.56817955 
    5180    2833062.8    300.04386    -216.4201    142.82416     140.7856    140.89523     216.4201   0.56825696 
    5200    2832504.2    301.16796   -214.72421    142.83121    140.76794    140.87817    214.72421   0.56833437 
    5220    2831760.4    300.17124    -215.9763    142.83826     140.7609    140.84127     215.9763   0.56841178 
    5240    2831766.4    300.31213   -92.200325    142.84531    140.76359    140.83192    92.200325   0.56848919 
    5260      2832014    300.37661   -136.54277    142.85236    140.76272    140.83816    136.54277    0.5685666 
    5280    2833040.5    300.34585   -3.6663789    142.85941    140.79271    140.85224    3.6663789   0.56864401 
    5300    2831386.1    300.58041    43.868969    142.86646    140.77164    140.78412   -43.868969   0.56872142 
    5320    2831549.6    300.46673   -147.67518    142.87351    140.78876    140.76817    147.67518   0.56879883 
    5340    2832199.9    300.45508   -146.75053    142.88056    140.80886    140.77346    146.75053   0.56887624 
    5360    2831667.9    300.49471   -140.12644    142.88761     140.7899    140.75902    140.12644   0.56895365 
    5380    2831578.7    300.00867   -134.36504    142.89466    140.81045    140.72711    134.36504   0.56903106 
    5400    2833086.5    300.17846   -311.07894    142.90171    140.86493    140.74065    311.07894   0.56910847 
    5420    2833767.8    300.13712    -96.25794    142.90876    140.87728     140.7552     96.25794   0.56918588 
    5440    2833860.5    300.90212   -106.16165    142.91581    140.85742    140.77271    106.16165   0.56926329 
    5460    2833136.5    300.27053    70.948873    142.92286    140.87358    140.71366   -70.948873    0.5693407 
    5480    2834109.5    299.50464   -10.145862    142.92991     140.8873    140.74134    10.145862   0.56941811 
    5500    2834971.8    299.19208   -10.350217    142.93696    140.90997    140.75457    10.350217   0.56949553 
    5520    2834594.6    299.68976     153.7433    142.94401    140.90077    140.73809    -153.7433   0.56957294 
    5540    2835062.7    300.07658    83.768712    142.95106    140.93901    140.71619   -83.768712   0.56965035 
    5560    2835616.1    299.77912   -41.533529     142.9581    140.94999    140.72576    41.533529   0.56972776 
    5580    2835595.9    298.85189    33.667936    142.96515    140.92461    140.74316   -33.667936   0.56980517 
    5600    2835076.9    300.10664    -12.17787     142.9722    140.85985    140.77515     12.17787   0.56988258 
    5620      2836521    299.68855   -11.135769    142.97925    140.89428    140.80549    11.135769   0.56995999 
    5640    2836263.7    299.02374    32.877355     142.9863    140.88804    140.79201   -32.877355    0.5700374 
    5660      2836332    299.18463    129.05026    142.99335    140.87495    140.80155   -129.05026   0.57011481 
    5680    2835844.8    300.11646    25.337769     143.0004    140.84258    140.80278   -25.337769   0.57019222 
    5700    2837013.3    300.53171   -23.284752    143.00745    140.86501    140.83143    23.284752   0.57026963 
    5720    2836969.7    300.37015   -72.857245     143.0145    140.85903    140.82829    72.857245   0.57034704 
    5740    2836318.8    300.58034   -114.76583    143.02155    140.81403    140.83403    114.76583   0.57042445 
    5760    2835920.1    300.10488   -64.878164     143.0286    140.80216    140.81917    64.878164   0.57050186 
    5780    2835209.1    300.89597    15.988754    143.03565    140.81033    140.76876   -15.988754   0.57057927 
    5800    2835745.8    300.60207   -42.837366     143.0427    140.80763    140.79116    42.837366   0.57065668 
    5820    2834023.4    300.43272    24.731287    143.04975    140.75363     140.7527   -24.731287   0.57073409 
    5840    2834603.9    300.74451    -82.89637     143.0568    140.79592     140.7323     82.89637    0.5708115 
    5860    2834363.7    301.16271   -117.69591    143.06385    140.75103    140.75832    117.69591   0.57088891 
    5880    2834125.7     300.8856   -171.48232     143.0709     140.7416      140.749    171.48232   0.57096632 
    5900    2834384.5    300.09322   -212.21308    143.07795    140.75636    140.74015    212.21308   0.57104373 
    5920    2833953.7    300.46189   -243.69993      143.085    140.76223    140.70596    243.69993   0.57112114 
    5940    2833259.3    300.29803   -184.59497    143.09205    140.74532    140.68145    184.59497   0.57119855 
    5960    2834017.5    300.70815   -215.11879     143.0991    140.76724    140.69026    215.11879   0.57127596 
    5980    2834051.6    300.97547   -177.96126    143.10615    140.74693    140.70531    177.96126   0.57135337 
    6000    2834947.5     299.8841   -119.04613     143.1132     140.7346     140.7552    119.04613   0.57143078 
    6020    2835738.7    300.75165   -307.58628    143.12025    140.75631    140.76583    307.58628    0.5715082 
    6040      2835791    299.95982   -326.87389     143.1273    140.78117    140.73664    326.87389   0.57158561 
    6060    2836044.1    299.90447   -331.35676    143.13435    140.76805    140.75538    331.35676   0.57166302 
    6080      2835310    299.86151   -327.67707     143.1414    140.74858    140.73148    327.67707   0.57174043 
    6100    2835643.6    300.32994   -384.55197    143.14845    140.73828    140.75141    384.55197   0.57181784 
    6120    2835405.9     299.2378   -341.59794     143.1555    140.70275    140.76821    341.59794   0.57189525 
    6140    2836498.2    299.25909   -294.16769    143.16255    140.71634    140.80192    294.16769   0.57197266 
    6160    2835774.5    300.15428    -184.3643     143.1696    140.64235    140.83311     184.3643   0.57205007 
    6180    2835139.1    299.82252   -135.51442    143.17665    140.59489    140.84215    135.51442   0.57212748 
    6200    2835526.7    299.12145   -204.75927     143.1837    140.61607    140.83325    204.75927   0.57220489 
    6220    2836021.7    299.44265   -170.31054    143.19075     140.6623    140.80461    170.31054    0.5722823 
    6240      2835124     300.1013   -166.73241     143.1978    140.62485    140.79059    166.73241   0.57235971 
    6260    2835714.1    300.37725   -52.301495    143.20485    140.59742    140.84043    52.301495   0.57243712 
    6280      2835234    300.59322    1.1352544     143.2119    140.55938    140.84777   -1.1352544   0.57251453 
    6300    2834549.6    299.48327    1.4586306    143.21895     140.5497    140.81653   -1.4586306   0.57259194 
    6320    2835220.6     299.3493    -160.4369      143.226    140.55994    140.83267     160.4369   0.57266935 
    6340    2834775.1    300.06622   -56.148725    143.23305    140.55078    140.81279    56.148725   0.57274676 
    6360      2834572    300.65629   -178.35258     143.2401    140.56245    140.78408    178.35258   0.57282417 
    6380      2834739    300.93491   -147.79393    143.24715    140.54947    140.79844    147.79393   0.57290158 
    6400    2834968.6      300.613   -100.00158     143.2542    140.59274    140.75959    100.00158   0.57297899 
    6420    2834643.2    299.87897   -95.181688    143.26125     140.5925    140.73675    95.181688    0.5730564 
    6440    2833989.1    300.85911   -11.609805     143.2683    140.51988    140.77006    11.609805   0.57313381 
    6460    2834246.7    300.26512   -44.288233    143.27535    140.49661    140.79925    44.288233   0.57321122 
    6480    2834998.5    300.26007   -94.633187     143.2824    140.52902    140.79718    94.633187   0.57328863 
    6500    2833890.3    300.68951    30.420583    143.28945    140.49169    140.77261   -30.420583   0.57336604 
    6520    2833144.6    301.29018    122.97498     143.2965    140.49371    140.72662   -122.97498   0.57344345 
    6540    2833548.8    299.79742    138.34743    143.30355    140.49206    140.74143   -138.34743   0.57352087 
    6560    2834535.1    299.96123   -119.14542     143.3106    140.51129    140.76423    119.14542   0.57359828 
    6580    2834565.2    300.03763   -83.881057    143.31765    140.50289    140.76721    83.881057   0.57367569 
    6600    2834524.9    299.60832   -65.069005     143.3247    140.51871    140.74244    65.069005    0.5737531 
    6620    2835471.7    300.19022   -87.275682    143.33175    140.54121    140.75999    87.275682   0.57383051 
    6640    2835176.1    299.45448   -168.79636     143.3388    140.49044    140.78925    168.79636   0.57390792 
    6660    2834934.1     299.9046   -96.745619    143.34585    140.50097    140.75976    96.745619   0.57398533 
    6680    2835393.8    300.05217   -122.07001     143.3529    140.54031    140.73626    122.07001   0.57406274 
    6700    2835583.6    299.41064   -124.07242    143.35995    140.53365    140.74543    124.07242   0.57414015 
    6720    2835521.3    299.65929   -129.99208      143.367    140.55539    140.71364    129.99208   0.57421756 
    6740    2835734.6    299.67625   -175.63567    143.37405     140.5818    140.69087    175.63567   0.57429497 
    6760    2836295.6    300.14934    -179.8642     143.3811    140.56604    140.72756     179.8642   0.57437238 
    6780    2836025.3    299.66996   -142.88348    143.38815    140.56132    140.71196    142.88348   0.57444979 
    6800    2835245.3    299.72287    -82.49496     143.3952    140.54247    140.68521     82.49496    0.5745272 
    6820    2835559.1    299.70801    58.732909    143.40225    140.57949    140.65681   -58.732909   0.57460461 
    6840    2835350.5    299.61371   -58.151173     143.4093    140.54453    140.67454    58.151173   0.57468202 
    6860    2834850.8    300.01417   -79.707925    143.41635    140.50066    140.68675    79.707925   0.57475943 
    6880    2836207.9    299.99314   -80.251358     143.4234    140.55027    140.69749    80.251358   0.57483684 
    6900    2835793.6    299.65485   -35.255264    143.43045    140.52577    140.69456    35.255264   0.57491425 
    6920    2836094.2    300.14244   -13.826653     143.4375    140.53418    140.69413    13.826653   0.57499166 
    6940    2836279.7    299.84741     -98.5857    143.44455    140.56768    140.66288      98.5857   0.57506907 
    6960    2836014.7    299.93397   -23.240785     143.4516    140.52065    140.68991    23.240785   0.57514648 
    6980    2835051.9    299.55599    21.200259    143.45865    140.54542    140.61044   -21.200259   0.57522389 
    7000    2834467.1    300.21818   -21.933376     143.4657    140.50522    140.61476    21.933376    0.5753013 
    7020    2834520.7    300.02951   -89.188494    143.47275    140.51851     140.5972    89.188494   0.57537871 
    7040    2834829.8    300.38864   -23.580843     143.4798      140.514    140.61014    23.580843   0.57545612 
    7060    2834266.8    299.72347   -32.877085    143.48685    140.46242    140.62692    32.877085   0.57553354 
    7080    2834685.4    300.25729   -43.221765     143.4939    140.50237    140.60079    43.221765   0.57561095 
    7100    2836216.5    300.06976     -188.475    143.50095    140.51834    140.65384      188.475   0.57568836 
    7120    2835717.9    299.96067   -212.64636      143.508    140.46695    140.67365    212.64636   0.57576577 
    7140    2835787.5    300.22059    -248.3625    143.51505    140.48108    140.65605     248.3625   0.57584318 
    7160    2836250.6    299.95917    -226.7413     143.5221     140.4776    140.67559     226.7413   0.57592059 
    7180    2835943.2    299.76685   -243.96533    143.52915     140.4363     140.6948    243.96533     0.575998 
    7200    2836158.9    298.93278   -74.742795     143.5362    140.46136    140.67349    74.742795   0.57607541 
    7220    2835446.7    299.59411   -237.17173    143.54325    140.38584     140.7069    237.17173   0.57615282 
    7240    2835078.7    298.69632   -83.464701     143.5503    140.40239    140.66516    83.464701   0.57623023 
    7260    2834794.1    300.05293   -171.27908    143.55735    140.41527    140.63122    171.27908   0.57630764 
    7280    2834416.1    299.19521   -216.75517     143.5644     140.4064    140.61445    216.75517   0.57638505 
    7300    2835496.8    299.76875   -251.50195    143.57145     140.4163    140.65124    251.50195   0.57646246 
    7320    2834708.9    298.47787    -300.8076     143.5785    140.43369    140.58784     300.8076   0.57653987 
    7340    2833779.8    299.11717   -198.05815    143.58555    140.40897    140.55961    198.05815   0.57661728 
    7360    2834608.5    299.11699   -283.16488     143.5926    140.42336     140.5794    283.16488   0.57669469 
    7380    2835106.1    299.61035   -212.20385    143.59965    140.43596    140.58456    212.20385    0.5767721 
    7400    2834370.3    299.02811   -223.96767     143.6067    140.45389    140.52323    223.96767   0.57684951 
    7420    2833089.8    299.93439   -201.24414    143.61375    140.43086    140.47588    201.24414   0.57692692 
    7440    2834639.2    299.59137   -191.24046     143.6208    140.48082    140.49583    191.24046   0.57700433 
    7460    2835182.2    300.46337    -216.5334    143.62785    140.49398    140.50268     216.5334   0.57708174 
    7480    2834006.1    300.04744   -74.852497     143.6349    140.44833    140.48315    74.852497   0.57715915 
    7500    2833800.1    300.45939   -47.172251    143.64195    140.42353    140.49085    47.172251   0.57723656 
    7520    2834950.4    300.08691    -133.3443      143.649    140.45078    140.51372     133.3443   0.57731397 
    7540    2835143.9    299.77753   -142.47519    143.65605    140.41771     140.5495    142.47519   0.57739138 
    7560    2835285.5    300.24675   -331.47484     143.6631    140.41852    140.54881    331.47484   0.57746879 
    7580    2836394.2    300.47038   -334.08886    143.67015    140.47926    140.53609    334.08886    0.5775462 
    7600    2836480.7    300.52443   -264.08611     143.6772    140.46879    140.54395    264.08611   0.57762362 
    7620    2836288.6    299.62174   -295.92806    143.68425    140.43203    140.56433    295.92806   0.57770103 
    7640    2836583.9    300.07808   -273.45399     143.6913    140.42102    140.58308    273.45399   0.57777844 
    7660    2836626.5    299.81231   -139.65071    143.69835    140.42142    140.57789    139.65071   0.57785585 
    7680    2836680.2    299.70875   -54.713967     143.7054    140.39642    140.59868    54.713967   0.57793326 
    7700    2836790.7    299.94756     33.08558    143.71245    140.37984    140.61387    -33.08558   0.57801067 
    7720    2837410.5    299.63851    10.109395     143.7195    140.40059    140.61691   -10.109395   0.57808808 
    7740    2838096.7    300.07796     14.49029    143.72655    140.43784    140.60671    -14.49029   0.57816549 
    7760    2837594.8    300.14908   -51.810001     143.7336    140.42929    140.58352    51.810001    0.5782429 
    7780    2838440.8    299.87898   -164.17617    143.74065    140.49832    140.54944    164.17617   0.57832031 
    7800    2838627.3    299.77082   -196.97463     143.7477    140.46883    140.58129    196.97463   0.57839772 
    7820    2838424.6    299.57742    58.662972    143.75474    140.46239     140.5708   -58.662972   0.57847513 
    7840      2838265    299.26271    88.071531    143.76179    140.48453    140.53385   -88.071531   0.57855254 
    7860    2838422.8    299.57902    186.67291    143.76884    140.49264    140.52666   -186.67291   0.57862995 
    7880    2838868.4    298.36158    76.347393    143.77589    140.50589    140.52858   -76.347393   0.57870736 
    7900    2838351.7    299.22712    140.19589    143.78294    140.51269    140.48932   -140.19589   0.57878477 
    7920    2837614.2    299.40889    68.248527    143.78999    140.47594    140.48266   -68.248527   0.57886218 
    7940    2837584.8    298.98493    84.428575    143.79704    140.49091    140.45936   -84.428575   0.57893959 
    7960    2838236.7     299.2238    -20.07651    143.80409    140.49604     140.4796     20.07651     0.579017 
    7980    2838523.9    299.18792   -70.187615    143.81114    140.49586    140.48712    70.187615   0.57909441 
    8000    2837502.1    299.58962   -173.80219    143.81819    140.47698    140.44854    173.80219   0.57917182 
    8020    2837057.6    299.22493   -71.310818    143.82524    140.47067    140.42595    71.310818   0.57924923 
    8040    2836977.8    300.10352   -50.658947    143.83229    140.46302    140.42276    50.658947   0.57932664 
    8060    2836603.9    300.58642   -126.01205    143.83934    140.44676    140.41363    126.01205   0.57940405 
    8080    2837578.5    299.19899   -182.65408    143.84639    140.44646    140.45529    182.65408   0.57948146 
    8100    2837700.1    300.10816   -121.16994    143.85344    140.40803    140.49287    121.16994   0.57955887 
    8120    2836913.8    299.90177  -0.34020045    143.86049    140.40393    140.45116   0.34020045   0.57963629 
    8140    2836150.3    299.93765   -114.83004    143.86754    140.40088    140.40953    114.83004    0.5797137 
    8160    2835069.7    300.47816   -18.892277    143.87459    140.36767    140.38236    18.892277   0.57979111 
    8180    2835002.9    300.12593   -94.845913    143.88164    140.37243    140.36742    94.845913   0.57986852 
    8200    2834489.3    300.72808   -71.868171    143.88869    140.36236    140.34517    71.868171   0.57994593 
    8220    2833963.7    299.95671    -181.9498    143.89574    140.34787    140.32676     181.9498   0.58002334 
    8240    2834805.6     300.0952   -385.79835    143.90279    140.37805     140.3314    385.79835   0.58010075 
    8260    2835127.9    300.25183   -143.80527    143.90984    140.34431    140.37422    143.80527   0.58017816 
    8280    2834166.9    299.96385   -85.892491    143.91689    140.26064    140.40347    85.892491   0.58025557 
    8300    2835295.8    300.14767   -85.368401    143.92394    140.28804    140.42508    85.368401   0.58033298 
    8320    2835752.3    299.74805   -133.07076    143.93099    140.28933    140.43952    133.07076   0.58041039 
    8340    2835918.1    299.85781   -234.27277    143.93804    140.26812    140.46209    234.27277    0.5804878 
    8360    2835449.4     299.5272   -346.43461    143.94509    140.26431    140.43581    346.43461   0.58056521 
    8380    2834965.9    299.47922   -348.18688    143.95214    140.25364    140.41566    348.18688   0.58064262 
    8400    2835182.6    299.60052   -446.12841    143.95919    140.24256    140.43062    446.12841   0.58072003 
    8420    2835212.4    299.18622   -487.28553    143.96624    140.24609    140.42168    487.28553   0.58079744 
    8440    2835469.2    299.82419   -333.54974    143.97329    140.21388    140.45978    333.54974   0.58087485 
    8460    2836291.6    299.24629   -313.12521    143.98034     140.2542    140.45325    313.12521   0.58095226 
    8480    2835879.7    299.32974   -219.58009    143.98739    140.23233    140.44788    219.58009   0.58102967 
    8500    2835407.9    298.63898   -251.00391    143.99444    140.20497    140.44504    251.00391   0.58110708 
    8520      2836422    299.13703   -406.28797    144.00149     140.2242    140.46913    406.28797   0.58118449 
    8540    2836475.7    298.99572   -324.95213    144.00854    140.21347    140.47566    324.95213    0.5812619 
    8560    2836069.8    300.14866    -305.8108    144.01559    140.19288     140.4693     305.8108   0.58133931 
    8580    2837760.9    299.61294   -373.62146    144.02264    140.22644    140.51255    373.62146   0.58141672 
    8600    2838868.9    299.16288   -390.35507    144.02969    140.22951    140.55745    390.35507   0.58149413 
    8620    2837075.9    298.83603   -169.44264    144.03674    140.14858    140.54291    169.44264   0.58157154 
    8640    2836457.9    300.98494   -165.27984    144.04379    140.13608    140.51796    165.27984   0.58164896 
    8660    2836799.9    299.84077   -243.72607    144.05084    140.13186    140.53226    243.72607   0.58172637 
    8680    2837326.1    299.34535   -394.16196    144.05789    140.17737    140.50581    394.16196   0.58180378 
    8700    2837046.2    299.63375   -333.09324    144.06494    140.14588    140.51665    333.09324   0.58188119 
    8720      2836737    300.33073   -129.87125    144.07199    140.12857    140.51181    129.87125    0.5819586 
    8740    2837304.1    299.66849   -201.72674    144.07904    140.13438    140.52719    201.72674   0.58203601 
    8760    2836822.4    300.10501   -119.95781    144.08609    140.11935    140.51153    119.95781   0.58211342 
    8780    2836569.2    300.20613   -83.694736    144.09314    140.11115    140.50034    83.694736   0.58219083 
    8800    2837517.3    300.32128   -86.183004    144.10019    140.13148    140.52003    86.183004   0.58226824 
    8820    2838078.9    300.48455   -131.72504    144.10724    140.14722    140.52519    131.72504   0.58234565 
    8840    2837766.1    299.91015   -192.99143    144.11429    140.17499    140.47499    192.99143   0.58242306 
    8860      2838170    300.28555   -291.75541    144.12134    140.21695    140.44607    291.75541   0.58250047 
    8880    2837969.9    299.79183   -288.58937    144.12839    140.21822    140.42803    288.58937   0.58257788 
    8900    2837928.3    300.75085   -157.20623    144.13544    140.19375    140.44361    157.20623   0.58265529 
    8920    2837072.1    300.07749   -88.165728    144.14249    140.17871    140.40943    88.165728    0.5827327 
    8940    2837639.3     300.2573    -14.84269    144.14954    140.18376    140.42558     14.84269   0.58281011 
    8960    2838084.7    300.54489   -31.687503    144.15659    140.17996    140.44456    31.687503   0.58288752 
    8980    2837177.7    301.01909    1.6075337    144.16364    140.16004    140.41276   -1.6075337   0.58296493 
    9000    2837314.2    300.08216   -114.29649    144.17069    140.15416    140.41854    114.29649   0.58304234 
    9020    2836865.7    300.67247   -154.40396    144.17774    140.15637    140.38726    154.40396   0.58311975 
    9040    2837104.7    300.35096   -217.12656    144.18479    140.18669    140.36187    217.12656   0.58319716 
    9060    2837015.5    300.18612   -161.40527    144.19184    140.21807    140.31918    161.40527   0.58327457 
    9080    2836092.9    300.12351   -104.46326    144.19889    140.17996    140.30483    104.46326   0.58335198 
    9100    2836793.3    299.42507   -38.553852    144.20594     140.1837    140.32887    38.553852   0.58342939 
    9120    2836893.1    299.88521   -49.720272    144.21299    140.20811    140.30251    49.720272    0.5835068 
    9140    2835906.1    299.66462     3.875434    144.22004    140.16074    140.29424    -3.875434   0.58358421 
    9160    2836586.9    299.17202   -25.995554    144.22709    140.17091    140.31088    25.995554   0.58366163 
    9180    2835790.3    300.08161   -12.721152    144.23414    140.18632     140.2492    12.721152   0.58373904 
    9200    2835357.5    300.43342   -46.852578    144.24119    140.18786    140.21941    46.852578   0.58381645 
    9220    2835456.9    299.65518   -57.534947    144.24824     140.1756    140.22974    57.534947   0.58389386 
    9240    2836073.8    299.43979    52.137987    144.25529    140.17949    140.24949   -52.137987   0.58397127 
    9260    2835941.2    300.44608    80.044652    144.26234    140.16114    140.25444   -80.044652   0.58404868 
    9280    2835923.9    299.76131    154.98915    144.26939     140.1461    140.26179   -154.98915   0.58412609 
    9300    2836845.9    299.91904    116.83988    144.27644    140.13952    140.30711   -116.83988    0.5842035 
    9320    2836684.8    299.31083    87.053796    144.28349    140.17116    140.26062   -87.053796   0.58428091 
    9340    2837223.9    299.94614   -43.179314    144.29054    140.16407    140.28753    43.179314   0.58435832 
    9360    2837278.4    299.74954   -246.59536    144.29759    140.15945    140.28799    246.59536   0.58443573 
    9380    2837072.3    301.10296   -101.82795    144.30464     140.1738    140.25659    101.82795   0.58451314 
    9400    2837812.1    300.25166   -233.18567    144.31169    140.16967    140.29044    233.18567   0.58459055 
    9420    2838191.8    300.72575   -316.12553    144.31874     140.1906    140.28141    316.12553   0.58466796 
    9440    2837389.5    300.86419   -83.239264    144.32579    140.15356    140.27197    83.239264   0.58474537 
    9460    2837921.9    299.89403    -202.4185    144.33284    140.14647    140.29853     202.4185   0.58482278 
    9480    2838257.3    300.51311   -187.63253    144.33989    140.14883     140.3059    187.63253   0.58490019 
    9500    2838687.5    300.09734   -220.77783    144.34694    140.14219    140.32696    220.77783    0.5849776 
    9520    2839927.4    300.10536   -508.78002    144.35399    140.17148    140.35207    508.78002   0.58505501 
    9540      2839404    300.08266   -412.86789    144.36104    140.11903    140.37187    412.86789   0.58513242 
    9560    2840246.9    300.91109   -494.54643    144.36809    140.16477    140.36086    494.54643   0.58520983 
    9580    2840680.2     300.0681    -378.4508    144.37514    140.22165    140.31848     378.4508   0.58528724 
    9600    2839950.9     300.4508   -220.75193    144.38219    140.19842    140.29884    220.75193   0.58536465 
    9620    2840729.2     300.9458   -128.30742    144.38924    140.20976     140.3191    128.30742   0.58544206 
    9640    2841419.5    300.22575   -331.83109    144.39629    140.26391    140.29215    331.83109   0.58551947 
    9660    2841492.6    299.72279   -273.03166    144.40334    140.25592    140.29691    273.03166   0.58559688 
    9680    2842189.2    300.12224   -332.11274    144.41039    140.29774    140.28262    332.11274    0.5856743 
    9700    2841961.1    299.25352   -383.44621    144.41744    140.27867    140.28359    383.44621   0.58575171 
    9720    2842382.4    299.39767   -240.73759    144.42449    140.26391     140.3123    240.73759   0.58582912 
    9740    2842494.6     300.3227   -345.47692    144.43154    140.26394    140.31096    345.47692   0.58590653 
    9760    2842477.5    299.93662   -292.10302    144.43859    140.26325    140.30395    292.10302   0.58598394 
    9780    2842822.1    299.98853   -126.42587    144.44564    140.27072    140.30664    126.42587   0.58606135 
    9800    2841966.3    299.81309   -178.58914    144.45269    140.23044    140.29784    178.58914   0.58613876 
    9820    2842273.7     300.0386   -124.61917    144.45974    140.23729    140.29932    124.61917   0.58621617 
    9840      2841708    299.50026   -64.424944    144.46679    140.23301    140.26884    64.424944   0.58629358 
    9860    2841372.1    300.09024   -205.35591    144.47384     140.2113    140.26712    205.35591   0.58637099 
    9880    2842089.2    299.78868   -379.25807    144.48089    140.21081    140.29617    379.25807    0.5864484 
    9900      2841395    299.88516   -378.35126    144.48794    140.23007    140.23579    378.35126   0.58652581 
    9920    2841082.8    299.75359   -381.11692    144.49499    140.22351     140.2201    381.11692   0.58660322 
    9940    2840681.3    299.76521   -291.43601    144.50204      140.219    140.19796    291.43601   0.58668063 
    9960    2839886.8    299.47014   -297.98113    144.50909    140.20105    140.16985    297.98113   0.58675804 
    9980    2840267.3    299.71791   -295.76037    144.51614    140.21752    140.16533    295.76037   0.58683545 
   10000    2840028.8    300.22805   -175.22209    144.52319    140.22572    140.13853    175.22209   0.58691286 
   10020      2839070    300.45197   -164.82868    144.53024      140.205    140.10508    164.82868   0.58699027 
   10040    2839447.1    299.45054   -216.97653    144.53729     140.1974    140.12445    216.97653   0.58706768 
   10060      2838526    299.94284   -70.183032    144.54434    140.17409    140.09545    70.183032   0.58714509 
   10080    2837814.1    300.65145   -61.623193    144.55138    140.17016    140.05742    61.623193    0.5872225 
   10100    2837701.3     300.1213   -70.621058    144.55843    140.16064    140.05453    70.621058   0.58729991 
   10120    2838009.2    299.93488   -161.12596    144.56548    140.16081    140.06273    161.12596   0.58737732 
   10140    2839363.6    300.80679   -241.99036    144.57253    140.19597     140.0876    241.99036   0.58745473 
   10160    2839285.3    300.41201   -192.25911    144.57958    140.18114    140.09172    192.25911   0.58753214 
   10180    2839140.1    300.72645   -105.94394    144.58663    140.13645     140.1224    105.94394   0.58760955 
   10200    2839835.3    299.77601   -38.376916    144.59368    140.11737    140.16896    38.376916   0.58768697 
   10220    2840611.8    300.16223   -80.669307    144.60073    140.13975    140.17806    80.669307   0.58776438 
   10240    2840710.8    300.95773   -97.008081    144.60778    140.13735    140.17852    97.008081   0.58784179 
   10260    2840669.4    300.93043   -29.023595    144.61483    140.17653    140.13046    29.023595    0.5879192 
   10280    2840563.3    299.34967    17.498821    144.62188    140.18256    140.11237   -17.498821   0.58799661 
   10300    2841297.4    300.21723    14.755068    144.62893    140.18822    140.13609   -14.755068   0.58807402 
   10320    2840557.2    299.95435   -18.696732    144.63598    140.17631    140.10466    18.696732   0.58815143 
   10340    2841331.8    299.14322   -127.26682    144.64303    140.15784    140.15449    127.26682   0.58822884 
   10360    2841937.8    299.83913   -28.759625    144.65008     140.1516     140.1838    28.759625   0.58830625 
   10380    2841402.1    299.63542   -20.989904    144.65713    140.11977    140.18238    20.989904   0.58838366 
   10400    2841071.6    300.27434   -127.62388    144.66418    140.12668    140.15233    127.62388   0.58846107 
   10420    2840458.5     299.3504   -177.24409    144.67123    140.12519    140.11674    177.24409   0.58853848 
   10440    2841140.2    299.71429   -299.93597    144.67828    140.13276    140.13597    299.93597   0.58861589 
   10460    2840848.3    300.18105   -361.32001    144.68533    140.12378    140.12373    361.32001    0.5886933 
   10480    2840522.7    299.91485   -395.54366    144.69238     140.1254    140.09923    395.54366   0.58877071 
   10500    2842153.5    298.99301   -373.43679    144.69943    140.13141    140.16682    373.43679   0.58884812 
   10520    2841306.9    300.20046   -277.12814    144.70648    140.10567    140.14398    277.12814   0.58892553 
   10540    2840874.4    300.52128   -106.38211    144.71353    140.08349    140.13801    106.38211   0.58900294 
   10560    2841302.9    300.40563     -35.5745    144.72058    140.08507    140.15073      35.5745   0.58908035 
   10580    2841292.5    300.74933   -68.828447    144.72763    140.09251    140.13595    68.828447   0.58915776 
   10600    2843007.8    300.77008   -117.57588    144.73468    140.08897    140.21726    117.57588   0.58923517 
   10620    2843056.6    301.10457   -232.89116    144.74173    140.07409    140.22774    232.89116   0.58931258 
   10640    2843551.6    300.20065   -110.61393    144.74878    140.09187    140.22753    110.61393   0.58938999 
   10660    2843474.2    299.93965   -80.628721    144.75583    140.11989    140.18884    80.628721    0.5894674 
   10680    2843448.1    300.91029   -67.192154    144.76288    140.09114    140.20949    67.192154   0.58954481 
   10700    2844171.1    300.84854   -33.955979    144.76993    140.14121    140.18821    33.955979   0.58962222 
   10720    2843009.4    300.42679   -111.05204    144.77698    140.10182    140.16353    111.05204   0.58969964 
   10740      2842404    299.80775   -95.361043    144.78403    140.11603    140.11264    95.361043   0.58977705 
   10760    2842935.5    300.75741   -164.90332    144.79108    140.09158    140.15648    164.90332   0.58985446 
   10780    2842632.9      300.712   -274.85589    144.79813    140.08648    140.13983    274.85589   0.58993187 
   10800    2841986.8    299.83834   -193.83713    144.80518    140.07068    140.11696    193.83713   0.59000928 
   10820    2842171.9    300.81388   -157.70533    144.81223    140.07802    140.11193    157.70533   0.59008669 
   10840    2842061.6    300.25905   -99.532186    144.81928    140.07044    140.10725    99.532186    0.5901641 
   10860    2841047.9     300.2234   -90.645417    144.82633    140.03182    140.08908    90.645417   0.59024151 
   10880      2840092    299.68218   -1.6514353    144.83338    139.97049    140.09649    1.6514353   0.59031892 
   10900    2841708.7    299.96239   -34.451454    144.84043    140.02053    140.11932    34.451454   0.59039633 
   10920    2841993.8    299.75025   -223.50791    144.84748    140.03279     140.1143    223.50791   0.59047374 
   10940    2841160.5    300.51749   -179.25645    144.85453    139.97943    140.11978    179.25645   0.59055115 
   10960    2842279.8     299.5461   -210.80759    144.86158    140.05265    140.09489    210.80759   0.59062856 
   10980    2841784.1    299.91278   -171.30693    144.86863    140.01434    140.10196    171.30693   0.59070597 
   11000    2841916.8    299.85846   -295.86992    144.87568    140.01107    140.10496    295.86992   0.59078338 
   11020    2842710.1    299.42994    -274.8709    144.88273    140.05244    140.09586     274.8709   0.59086079 
   11040    2842947.8    299.74291     -101.184    144.88978    140.06228    140.09091      101.184    0.5909382 
   11060    2843154.7    300.05111   -146.10105    144.89683    140.05345    140.10312    146.10105   0.59101561 
   11080      2843588    299.34112   -188.57567    144.90388    140.06338    140.10772    188.57567   0.59109302 
   11100    2843830.4    299.21172   -144.44957    144.91093    140.08432     140.0919    144.44957   0.59117043 
   11120    2844576.3    298.49049   -273.05399    144.91798    140.08767    140.11847    273.05399   0.59124784 
   11140    2843602.6    299.46496   -313.96364    144.92503    140.02669    140.12469    313.96364   0.59132525 
   11160    2843812.5    299.78949   -196.17967    144.93208    140.06584    140.08906    196.17967   0.59140266 
   11180    2844288.1    300.19898   -91.176774    144.93913    140.04783    140.12368    91.176774   0.59148007 
   11200      2843156    299.72667   -67.051819    144.94618     140.0182    140.09073    67.051819   0.59155748 
   11220      2843427    300.75902    -54.94632    144.95323    140.03565    140.07982     54.94632   0.59163489 
   11240    2843558.9    299.74048   -205.32344    144.96028    140.00118    140.11399    205.32344   0.59171231 
   11260    2843043.7    300.58504    -142.2541    144.96733    139.96715    140.11585     142.2541   0.59178972 
   11280    2843042.6    300.76267   -216.83794    144.97438    139.96038    140.11576    216.83794   0.59186713 
   11300    2843213.4     300.3686    -297.8641    144.98143    139.95738    140.12037     297.8641   0.59194454 
   11320    2843686.6    299.98655   -342.44541    144.98848      139.973    140.12124    342.44541   0.59202195 
   11340      2842937    300.67404   -375.70364    144.99553     139.9403    140.11022    375.70364   0.59209936 
   11360    2842599.7     300.5868   -341.88136    145.00258    139.91504    140.11208    341.88136   0.59217677 
   11380    2843421.8    299.92734    -347.6425    145.00963    139.92717    140.13363     347.6425   0.59225418 
   11400    2841580.8    300.12354   -304.94939    145.01668    139.89669    140.06662    304.94939   0.59233159 
   11420    2842740.3    301.05234   -221.98273    145.02373     139.9503    140.06327    221.98273     0.592409 
   11440    2842728.4     300.2535   -165.26671    145.03078    139.92684    140.07936    165.26671   0.59248641 
   11460    2841851.6    300.07562   -156.67388    145.03783    139.91255    140.04365    156.67388   0.59256382 
   11480    2841378.3      300.223   -64.805746    145.04488    139.91575    140.01032    64.805746   0.59264123 
   11500    2841851.3    300.12558    -74.67998    145.05193    139.94634    139.99622     74.67998   0.59271864 
   11520    2842432.8    299.95021   -51.493846    145.05898    139.94822    140.01618    51.493846   0.59279605 
   11540      2841517    299.68942    14.337311    145.06603    139.94075    139.97173   -14.337311   0.59287346 
   11560      2841426    299.56086     10.76048    145.07308    139.93478    139.96642    -10.76048   0.59295087 
   11580    2842460.8    300.48856   -104.56476    145.08013    139.98165    139.96371    104.56476   0.59302828 
   11600    2842162.9    299.93556   -249.09271    145.08718    139.96732    139.95657    249.09271   0.59310569 
   11620      2841649    300.57444   -119.16016    145.09423    139.99318    139.89861    119.16016    0.5931831 
   11640    2843399.9    299.64548   -158.09434    145.10128    139.96421    140.00698    158.09434   0.59326051 
   11660    2843967.2    299.79496    22.253307    145.10833    139.98644    140.00588   -22.253307   0.59333792 
   11680    2843846.5    299.65398    24.999308    145.11538     140.0342    139.94539   -24.999308   0.59341533 
   11700    2844515.3    300.21841   -118.60618    145.12243    140.00801    139.99769    118.60618   0.59349274 
   11720    2845155.8      300.196   -125.47864    145.12948    139.97726    140.05316    125.47864   0.59357015 
   11740    2845256.4    299.66282   -293.57529    145.13653    139.97025    140.05833    293.57529   0.59364756 
   11760      2845036    299.28532   -175.51256    145.14358    139.95336    140.05758    175.51256   0.59372498 
   11780    2845729.6     299.7872   -236.51975    145.15063    139.93962    140.09868    236.51975   0.59380239 
   11800    2846504.8    299.96528   -257.67696    145.15768    139.99541    140.07419    257.67696    0.5938798 
   11820    2847070.2     300.1706   -387.08315    145.16473    139.98733     140.1033    387.08315   0.59395721 
   11840    2846325.5    300.25253   -290.92838    145.17178    139.98871    140.05846    290.92838   0.59403462 
   11860    2846722.1    300.33905   -113.17942    145.17883    139.99692    140.06296    113.17942   0.59411203 
   11880      2846937    300.72483    -110.9374    145.18588    140.00678    140.05688     110.9374   0.59418944 
   11900    2845956.7    300.95936    -50.50245    145.19293    139.90948    140.09921     50.50245   0.59426685 
   11920    2845387.3    299.98746   -90.286094    145.19998    139.87768    140.09622    90.286094   0.59434426 
   11940    2846599.5    300.41074   -285.10494    145.20703    139.88652    140.14024    285.10494   0.59442167 
   11960    2846658.7    300.49603   -337.94379    145.21408    139.91973     140.1031    337.94379   0.59449908 
   11980    2846279.6    300.29105    -276.0075    145.22113    139.91895    140.07842     276.0075   0.59457649 
   12000      2847183    301.35337    -287.9584    145.22818    139.94904    140.08594     287.9584    0.5946539 
   12020    2846717.4    300.60854   -331.43479    145.23523    139.93873    140.06656    331.43479   0.59473131 
   12040    2847063.9    300.74178   -375.07565    145.24228    139.95106    140.06446    375.07565   0.59480872 
   12060    2847427.2    300.44822   -540.14076    145.24933    139.95468    140.07192    540.14076   0.59488613 
   12080    2846511.6    300.88695   -366.55312    145.25638    139.96001    140.01475    366.55312   0.59496354 
   12100    2845484.4     300.1295   -244.08995    145.26343    139.97615    139.94129    244.08995   0.59504095 
   12120    2845472.7     300.4752   -139.47872    145.27048    139.97726    139.93282    139.47872   0.59511836 
   12140    2844256.4     299.9523    -95.50738    145.27753    139.97294    139.87054     95.50738   0.59519577 
   12160    2845325.7    300.10404   -204.82154    145.28458    139.96828    139.92099    204.82154   0.59527318 
   12180    2845675.8    300.06836   -277.02472    145.29163    139.95696    139.94272    277.02472   0.59535059 
   12200    2846868.3    299.84606   -335.60305    145.29868    139.96789    139.98365    335.60305     0.595428 
   12220    2846470.2    299.90298   -459.14229    145.30573    139.96762    139.95756    459.14229   0.59550541 
   12240    2846277.2    300.72065   -491.46975    145.31278    139.96213    139.94676    491.46975   0.59558282 
   12260    2846897.1    299.33747   -433.76932    145.31983    140.01197    139.92063    433.76932   0.59566023 
   12280    2845899.3    299.67209   -302.34449    145.32688    139.99743    139.87933    302.34449   0.59573765 
   12300    2846000.2    299.25015   -331.04018    145.33393    140.00703     139.8679    331.04018   0.59581506 
   12320    2846911.8    299.75564   -302.76622    145.34098    140.02097    139.89199    302.76622   0.59589247 
   12340    2847517.3       299.85   -241.14124    145.34802    140.02156    139.91438    241.14124   0.59596988 
   12360    2847585.7    299.69362   -402.67692    145.35507     140.0314    139.90111    402.67692   0.59604729 
   12380    2847328.7      299.562   -352.19504    145.36212    139.99597    139.91711    352.19504    0.5961247 
   12400    2847443.8    300.14402   -290.07677    145.36917     139.9892    139.92274    290.07677   0.59620211 
   12420    2847238.2    299.94791   -317.17659    145.37622    140.04137    139.85374    317.17659   0.59627952 
   12440    2846395.4    300.42312   -97.469205    145.38327    139.97681    139.87004    97.469205   0.59635693 
   12460    2847085.6    299.60587   -247.85365    145.39032    139.97663    139.89735    247.85365   0.59643434 
   12480    2847397.2    300.19133   -230.69145    145.39737    139.94741    139.93509    230.69145   0.59651175 
   12500    2846301.4    300.41059   -269.49625    145.40442    139.89922    139.92263    269.49625   0.59658916 
   12520    2846885.2    299.90642   -453.42951    145.41147    139.90409    139.93967    453.42951   0.59666657 
   12540    2846574.5    299.88541   -460.18366    145.41852    139.91459    139.90712    460.18366   0.59674398 
   12560    2845351.3    300.66853   -284.32834    145.42557    139.85864    139.89617    284.32834   0.59682139 
   12580    2845257.2    300.13795   -230.82341    145.43262    139.87417    139.86923    230.82341    0.5968988 
   12600    2845205.9    300.69326   -345.22832    145.43967    139.88915    139.84495    345.22832   0.59697621 
   12620    2845189.5      300.714   -327.55985    145.44672    139.88304    139.84347    327.55985   0.59705362 
   12640    2844425.8    300.63315   -193.15469    145.45377    139.84518    139.83701    193.15469   0.59713103 
   12660    2843547.7    301.16322   -121.15598    145.46082    139.79224       139.84    121.15598   0.59720844 
   12680    2846070.8    300.77385   -178.67175    145.46787    139.86739     139.8821    178.67175   0.59728585 
   12700    2845415.1     300.7133   -202.56016    145.47492    139.80392    139.90658    202.56016   0.59736326 
   12720    2845231.7    300.07793   -163.90309    145.48197    139.80539    139.88932    163.90309   0.59744067 
   12740    2845723.4    300.46969   -242.78269    145.48902    139.80419    139.90791    242.78269   0.59751808 
   12760    2845951.5     300.3739   -35.673118    145.49607     139.8264    139.89012    35.673118   0.59759549 
   12780    2846330.9    300.53074    18.978272    145.50312    139.81755    139.91085   -18.978272    0.5976729 
   12800      2845831    300.49265   -32.016094    145.51017    139.81117    139.88587    32.016094   0.59775032 
   12820    2847758.2    299.66493   -93.179999    145.51722    139.85472    139.93025    93.179999   0.59782773 
   12840    2848487.8    300.44777   -173.38452    145.52427    139.86028    139.95375    173.38452   0.59790514 
   12860      2847621      300.669   -268.88926    145.53132    139.88359    139.88107    268.88926   0.59798255 
   12880    2847617.2    299.58892   -59.770073    145.53837    139.86421    139.89349    59.770073   0.59805996 
   12900    2849166.8    299.63341   -248.58612    145.54542    139.87431    139.95273    248.58612   0.59813737 
   12920    2850254.6    300.05305    -181.2596    145.55247    139.93905    139.93461     181.2596   0.59821478 
   12940    2849291.8    299.23643   -110.93883    145.55952    139.93552     139.8841    110.93883   0.59829219 
   12960    2848670.1    299.89764   -21.256544    145.56657    139.85805    139.92426    21.256544    0.5983696 
   12980    2850270.9    299.85519   -211.31231    145.57362    139.94577    139.90836    211.31231   0.59844701 
   13000    2849325.9    300.23508   -336.21533    145.58067     139.9241    139.87687    336.21533   0.59852442 
   13020    2849065.4    299.84834   -269.57032    145.58772     139.9252    139.85621    269.57032   0.59860183 
[...]
  396760    3959985.4    300.48965   -161.14326    280.85437    118.69147    118.79356    161.14326    2.0838749 
  396780    3961157.3    299.90185   -231.16729    280.86142    118.72455    118.79262    231.16729    2.0839523 
  396800    3959970.9    299.64301   -260.57743    280.86847    118.69504    118.78359    260.57743    2.0840297 
  396820    3960041.4    299.84673   -259.41942    280.87552    118.70282    118.77493    259.41942    2.0841071 
  396840    3961391.4    300.38774   -345.28224    280.88257    118.73223    118.78301    345.28224    2.0841845 
  396860      3961033    299.51226   -226.41879    280.88962    118.74907    118.75244    226.41879    2.0842619 
  396880    3960056.5    299.66636   -239.98588    280.89667    118.75104    118.71821    239.98588    2.0843393 
  396900    3961219.2     299.9459   -292.01354    280.90372    118.75236    118.74878    292.01354    2.0844167 
  396920    3960649.9    299.33834   -81.284713    280.91077    118.75594    118.72515    81.284713    2.0844941 
  396940    3958246.2     299.8806    5.0405836    280.91782    118.71778    118.68826   -5.0405836    2.0845716 
  396960      3957449    298.88826   -55.236845    280.92487    118.70883    118.67033    55.236845     2.084649 
  396980      3958343    299.27367   -25.801035    280.93192    118.70902    118.69396    25.801035    2.0847264 
  397000      3958930    299.60652   -26.428393    280.93897    118.74369    118.67392    26.428393    2.0848038 
  397020    3958157.5    299.29987   -10.776419    280.94602    118.75153    118.63995    10.776419    2.0848812 
  397040    3959106.7    299.23735    23.128462    280.95307     118.7634    118.65357   -23.128462    2.0849586 
  397060    3961544.2    299.67464   -55.645139    280.96012    118.77852    118.70852    55.645139     2.085036 
  397080    3960138.2    300.02569     14.57973    280.96717    118.74459    118.69732    -14.57973    2.0851134 
  397100    3959660.8    299.60826   -49.892608    280.97422    118.74065    118.68397    49.892608    2.0851908 
  397120      3961648    300.84601   -130.91113    280.98127    118.78943     118.6918    130.91113    2.0852682 
  397140    3963135.2    299.81536   -281.07805    280.98832    118.82534     118.6975    281.07805    2.0853457 
  397160    3963866.9    299.83449   -297.24627    280.99537    118.85802    118.68379    297.24627    2.0854231 
  397180      3962924    300.15921   -245.93166    281.00242    118.87708    118.63356    245.93166    2.0855005 
  397200    3963693.4    299.90806   -172.15955    281.00947    118.90014     118.6306    172.15955    2.0855779 
  397220    3963354.7     300.4231   -94.329962    281.01652    118.87399    118.64358    94.329962    2.0856553 
  397240    3963364.7    301.52288   -94.536303    281.02357    118.85524    118.65962    94.536303    2.0857327 
  397260    3963821.1    300.65209   -137.11756    281.03062    118.86145    118.66411    137.11756    2.0858101 
  397280    3965752.9    301.11687   -253.51945    281.03767    118.89443    118.68603    253.51945    2.0858875 
  397300    3967025.7    300.05006   -284.95325    281.04472    118.90026    118.71532    284.95325    2.0859649 
  397320    3966863.3    300.42996   -302.42119    281.05177    118.87745    118.73026    302.42119    2.0860423 
  397340    3967802.9    300.26527   -374.29915    281.05882    118.88346     118.7494    374.29915    2.0861198 
  397360    3968052.9     300.3236   -333.86341    281.06587    118.87305    118.76431    333.86341    2.0861972 
  397380    3969078.8    299.90836   -272.54174    281.07292    118.86932    118.79576    272.54174    2.0862746 
  397400    3969648.5    300.33584    -149.2398    281.07997    118.83815    118.84099     149.2398     2.086352 
  397420    3969616.6    300.58305   -174.63164    281.08702    118.81174    118.86347    174.63164    2.0864294 
  397440    3970240.9    300.18191   -171.89366    281.09407    118.81933    118.87159    171.89366    2.0865068 
  397460    3972461.9    299.78849   -230.76063    281.10112    118.85678    118.89763    230.76063    2.0865842 
  397480    3971599.3    299.87913   -215.98994    281.10817    118.84652     118.8791    215.98994    2.0866616 
  397500    3970684.4    300.21894   -160.22266    281.11522    118.82853    118.86673    160.22266     2.086739 
  397520    3970263.7    300.22579   -273.68127    281.12227    118.82114    118.85854    273.68127    2.0868165 
  397540    3970676.6    299.43281   -247.50151    281.12932    118.80617    118.88289    247.50151    2.0868939 
  397560    3969625.9     299.0904   -276.73424    281.13637    118.79269    118.86194    276.73424    2.0869713 
  397580    3968136.8    299.88717   -245.30987    281.14342    118.73668    118.87042    245.30987    2.0870487 
  397600    3969977.9    299.94098   -255.61166    281.15047    118.70236    118.95698    255.61166    2.0871261 
  397620    3969492.5    300.51299   -188.27716    281.15752    118.68374    118.95811    188.27716    2.0872035 
  397640    3969701.6    299.96968   -238.94145    281.16457    118.69314    118.95197    238.94145    2.0872809 
  397660    3969478.5    300.01872   -243.64315    281.17162    118.69423    118.94121    243.64315    2.0873583 
  397680    3968710.1    299.85951   -153.15443    281.17867    118.66263    118.94688    153.15443    2.0874357 
  397700    3968554.6    300.03543   -189.33094    281.18572    118.66714    118.93471    189.33094    2.0875131 
  397720    3969581.4    299.56079   -252.25007    281.19277     118.6915    118.93808    252.25007    2.0875906 
  397740      3969618    300.67863   -195.24243    281.19982    118.68035    118.94738    195.24243     2.087668 
  397760    3969477.2    300.96281   -92.984898    281.20687    118.70594    118.91453    92.984898    2.0877454 
  397780    3969478.9    300.25318   -135.27434    281.21392    118.70138    118.91617    135.27434    2.0878228 
  397800      3969760    301.31533   -289.79308    281.22097     118.7134    118.90956    289.79308    2.0879002 
  397820    3968449.9    301.45563   -180.34414    281.22802    118.71055     118.8702    180.34414    2.0879776 
  397840    3967036.7    300.48371   -197.96681    281.23507     118.6994    118.83606    197.96681     2.088055 
  397860    3968225.8     300.6403    -258.7929    281.24212    118.70373    118.86436     258.7929    2.0881324 
  397880    3968110.6     301.0695   -274.28943    281.24917    118.68006    118.88164    274.28943    2.0882098 
  397900    3968257.6    300.79731   -274.61714    281.25622    118.71716    118.84591    274.61714    2.0882872 
  397920    3968107.7    301.30566   -237.19882    281.26327    118.72641    118.82918    237.19882    2.0883647 
  397940    3968115.4    301.03216   -229.90696    281.27032    118.69504    118.85784    229.90696    2.0884421 
  397960    3966901.8    300.64425   -306.11322    281.27737    118.67931    118.83426    306.11322    2.0885195 
  397980    3967643.7    300.74765   -343.77256    281.28442    118.71498    118.81779    343.77256    2.0885969 
  398000    3967090.5    300.08496   -338.38322    281.29147    118.72776    118.78546    338.38322    2.0886743 
  398020    3966473.5     299.7762   -315.19799    281.29852    118.72816     118.7636    315.19799    2.0887517 
  398040    3965928.4    300.36484   -224.83146    281.30557    118.71436    118.75812    224.83146    2.0888291 
  398060    3965480.9    300.43364   -168.08417    281.31262     118.6848    118.77131    168.08417    2.0889065 
  398080      3966810    299.32741   -44.815737    281.31967    118.70131    118.79161    44.815737    2.0889839 
  398100    3966404.6    300.17457   -202.27337    281.32672    118.64969    118.82817    202.27337    2.0890614 
  398120      3966485    299.70103   -188.86319    281.33377    118.62844    118.84889    188.86319    2.0891388 
  398140    3967490.5    300.27833   -244.83278    281.34082    118.66313    118.84129    244.83278    2.0892162 
  398160    3968404.8    299.40545   -295.19605    281.34787    118.69104    118.83775    295.19605    2.0892936 
  398180    3966705.7    299.27409   -254.97212    281.35492    118.65851    118.81645    254.97212     2.089371 
  398200    3967062.6    300.65375    -280.7571    281.36197    118.63423    118.84848     280.7571    2.0894484 
  398220    3966930.8    300.08976   -152.02054    281.36902    118.61935    118.85647    152.02054    2.0895258 
  398240    3966978.9    300.22241   -140.64972    281.37607    118.58721    118.88714    140.64972    2.0896032 
  398260    3966278.9    299.62865   -138.44617    281.38312    118.58704    118.86336    138.44617    2.0896806 
  398280    3966428.3    299.66765   -165.60572    281.39017    118.60817    118.84368    165.60572     2.089758 
  398300    3967686.6    299.72979   -223.32869    281.39722    118.62856    118.85797    223.32869    2.0898355 
  398320    3968984.4    300.08287   -438.32654    281.40427    118.62605    118.89638    438.32654    2.0899129 
  398340    3968018.1    299.77712   -433.46703    281.41132    118.61814    118.87238    433.46703    2.0899903 
  398360    3967758.5    300.25145   -235.22911    281.41837    118.59753    118.88229    235.22911    2.0900677 
  398380    3969056.6    300.24766   -378.51335    281.42542    118.59766    118.91807    378.51335    2.0901451 
  398400    3969082.4     299.9207    -292.7567    281.43247     118.6196    118.89387     292.7567    2.0902225 
  398420    3969190.2    300.64658   -258.53578    281.43952    118.62686    118.88685    258.53578    2.0902999 
  398440    3968592.5    301.21669   -134.81983    281.44657    118.59709     118.8958    134.81983    2.0903773 
  398460    3969221.5    300.78923   -113.18408    281.45362    118.60165     118.9071    113.18408    2.0904547 
  398480    3969531.6    300.49085   -281.39464    281.46067    118.60993    118.90511    281.39464    2.0905322 
  398500    3970407.2    300.60613   -369.05321    281.46772    118.59783    118.94049    369.05321    2.0906096 
  398520    3969806.2    300.51426   -314.73652    281.47477      118.623    118.89428    314.73652     2.090687 
  398540    3970045.8     301.3898   -301.15903    281.48182    118.62709    118.89437    301.15903    2.0907644 
  398560    3970845.1    300.35927    -302.7474    281.48887    118.64109     118.9013     302.7474    2.0908418 
  398580    3970250.1    300.12851   -233.80969    281.49592    118.60271    118.91897    233.80969    2.0909192 
  398600      3970879    300.26676   -188.57328    281.50297    118.61704    118.92046    188.57328    2.0909966 
  398620    3970683.6    300.21798   -201.08306    281.51002    118.62736    118.90129    201.08306     2.091074 
  398640      3972375    300.10974   -172.77081    281.51707     118.6367    118.93959    172.77081    2.0911514 
  398660    3972174.2    300.14139   -141.29216    281.52412    118.67966    118.88756    141.29216    2.0912288 
  398680      3972315     300.2448   -95.390794    281.53116    118.68321    118.88523    95.390794    2.0913063 
  398700    3972489.1    299.84162    -92.55752    281.53821    118.68557     118.8851     92.55752    2.0913837 
  398720      3971730    299.65748   -145.66336    281.54526    118.65751    118.88752    145.66336    2.0914611 
  398740    3971879.5    299.56498   -169.05464    281.55231    118.64061    118.90595    169.05464    2.0915385 
  398760    3972637.3    299.73809   -255.04806    281.55936    118.66364    118.90258    255.04806    2.0916159 
  398780    3973243.6    299.82897   -268.61108    281.56641    118.70766    118.87365    268.61108    2.0916933 
  398800    3974002.1    299.57227    -322.3305    281.57346    118.72274    118.87826     322.3305    2.0917707 
  398820    3974444.3    300.11835   -374.07415    281.58051    118.70116    118.91013    374.07415    2.0918481 
  398840    3974302.7    300.48888   -310.75309    281.58756    118.68739    118.91671    310.75309    2.0919255 
  398860    3973503.2    300.05073   -192.70549    281.59461    118.63395    118.94337    192.70549    2.0920029 
  398880    3971305.8    300.43922   -105.01572    281.60166    118.57271    118.93602    105.01572    2.0920804 
  398900    3972126.6    300.26093    -167.4278    281.60871    118.59859    118.93165     167.4278    2.0921578 
  398920    3972760.5    299.95893   -285.12163    281.61576    118.62539    118.92079    285.12163    2.0922352 
  398940      3972575     300.1733   -263.77758    281.62281    118.57889    118.95889    263.77758    2.0923126 
  398960    3971747.7    300.68355   -340.50765    281.62986    118.54942     118.9607    340.50765      2.09239 
  398980    3971661.6    299.75066   -377.86843    281.63691    118.55343    118.95112    377.86843    2.0924674 
  399000    3972663.1    300.66711    -371.3472    281.64396    118.50819    119.02355     371.3472    2.0925448 
  399020    3972245.8    300.80816   -256.48025    281.65101    118.50032    119.01597    256.48025    2.0926222 
  399040    3969607.8    300.24154   -137.29416    281.65806    118.46935    118.96505    137.29416    2.0926996 
  399060    3967906.1    300.42594   -37.251799    281.66511    118.43873    118.94182    37.251799    2.0927771 
  399080      3968717    300.51536   -44.493317    281.67216    118.46422    118.93756    44.493317    2.0928545 
  399100    3969186.5    301.78378   -145.12064    281.67921    118.48004    118.93277    145.12064    2.0929319 
  399120    3968735.2    301.75645   -251.89494    281.68626    118.45714    118.93926    251.89494    2.0930093 
  399140    3967840.7    300.73106   -203.43511    281.69331    118.43434    118.93237    203.43511    2.0930867 
  399160    3968026.3    300.50283   -272.78378    281.70036    118.44724      118.922    272.78378    2.0931641 
  399180    3967988.2    301.50068   -247.50015    281.70741    118.43455    118.93062    247.50015    2.0932415 
  399200    3967717.3    301.05262   -243.54984    281.71446    118.43175    118.92233    243.54984    2.0933189 
  399220    3967525.3    299.90827   -242.57474    281.72151    118.41033    118.93512    242.57474    2.0933963 
  399240    3966620.8    299.26764    -221.5446    281.72856    118.38681    118.92865     221.5446    2.0934737 
  399260    3966997.9    300.35963   -261.49128    281.73561    118.38492    118.93887    261.49128    2.0935512 
  399280    3967962.7    300.41303    -251.2949    281.74266    118.41906    118.93054     251.2949    2.0936286 
  399300    3967430.1     300.3695   -120.02715    281.74971    118.40023     118.9305    120.02715     2.093706 
  399320    3966519.1    299.95427   -79.389706    281.75676    118.37256    118.92801    79.389706    2.0937834 
  399340    3967568.6    299.81675   -118.80448    281.76381    118.38563    118.94337    118.80448    2.0938608 
  399360      3969644    299.44183   -164.48132    281.77086    118.40866    118.97947    164.48132    2.0939382 
  399380    3969286.7    299.75985   -204.58581    281.77791    118.39241    118.98211    204.58581    2.0940156 
  399400    3969053.2    300.22222    -193.8079    281.78496    118.41584    118.94859     193.8079     2.094093 
  399420    3971392.3    299.99801    -310.4393    281.79201    118.47504    118.95624     310.4393    2.0941704 
  399440      3972392    300.21845   -491.17549    281.79906    118.50069    118.95746    491.17549    2.0942478 
  399460    3972290.6    299.66647   -496.23335    281.80611    118.47437    118.97787    496.23335    2.0943253 
  399480    3973137.6    300.01425   -427.84418    281.81316    118.49646    118.97808    427.84418    2.0944027 
  399500    3973853.9    299.61637   -286.36716    281.82021     118.5295    118.96338    286.36716    2.0944801 
  399520    3973196.1    300.01375    -228.1765    281.82726    118.50938    118.96091     228.1765    2.0945575 
  399540    3974293.1    300.10146   -210.42222    281.83431    118.55933    118.94064    210.42222    2.0946349 
  399560    3974719.7    299.66423   -182.00959    281.84136    118.60193    118.90771    182.00959    2.0947123 
  399580    3974701.8    300.11995   -265.97332    281.84841    118.63731    118.86874    265.97332    2.0947897 
  399600    3977242.3    300.36645   -462.12986    281.85546    118.69221    118.88673    462.12986    2.0948671 
  399620    3978085.6    300.34722   -356.05786    281.86251    118.71765    118.88348    356.05786    2.0949445 
  399640    3978437.9    299.75016   -388.22405    281.86956    118.71309    118.89561    388.22405     2.095022 
  399660    3978083.2    299.86465   -276.17137    281.87661    118.74536    118.84972    276.17137    2.0950994 
  399680      3977785     300.3819   -286.27239    281.88366    118.78155    118.80164    286.27239    2.0951768 
  399700    3980386.3     300.4948   -256.48268    281.89071    118.80667    118.85122    256.48268    2.0952542 
  399720    3980642.3    300.69631   -290.94178    281.89776    118.80343    118.85913    290.94178    2.0953316 
  399740    3979302.9    301.04103   -104.94293    281.90481    118.80944    118.81015    104.94293     2.095409 
  399760    3980332.5    300.45845    -114.9647    281.91186    118.79791    118.84945     114.9647    2.0954864 
  399780    3982397.9     300.3855   -279.56542    281.91891    118.80875     118.8973    279.56542    2.0955638 
  399800    3981160.7    300.66817   -336.27863    281.92596    118.81499    118.85116    336.27863    2.0956412 
  399820    3979387.6    301.21778   -346.87238    281.93301    118.80543    118.80481    346.87238    2.0957186 
  399840      3979256    300.82149   -280.47649    281.94006     118.7963    118.80704    280.47649    2.0957961 
  399860    3980643.9    300.47889   -246.31168    281.94711    118.81415    118.82765    246.31168    2.0958735 
  399880    3980770.8    300.73276   -276.04769    281.95416     118.8006    118.84203    276.04769    2.0959509 
  399900    3981099.7    300.27517   -268.39417    281.96121    118.78014    118.86934    268.39417    2.0960283 
  399920    3980026.9    300.21306   -236.11111    281.96826    118.79319    118.82129    236.11111    2.0961057 
  399940    3978358.3    300.74266   -154.53011    281.97531    118.76173    118.79996    154.53011    2.0961831 
  399960    3979568.4    299.76791   -235.63042    281.98236    118.76335    118.83151    235.63042    2.0962605 
  399980    3979553.8    299.86546   -163.42314    281.98941    118.78054     118.8109    163.42314    2.0963379 
  400000    3978425.6    299.60794   -120.87886    281.99646    118.76616    118.78863    120.87886    2.0964153 
Loop time of 60321.1 on 64 procs for 400000 steps with 212040 atoms

Performance: 0.573 ns/day, 41.890 hours/ns, 6.631 timesteps/s
99.8% CPU use with 64 MPI tasks x 1 OpenMP threads

MPI task timing breakdown:
Section |  min time  |  avg time  |  max time  |%varavg| %total
---------------------------------------------------------------
Pair    | 9907       | 17912      | 22591      |2455.1 | 29.69
Bond    | 1017.2     | 1578.3     | 1862       | 528.9 |  2.62
Kspace  | 3009.8     | 7952       | 16515      |3920.7 | 13.18
Neigh   | 31348      | 31452      | 31527      |  33.5 | 52.14
Comm    | 970.75     | 1062.9     | 1193.1     | 205.0 |  1.76
Output  | 4.6629     | 5.5203     | 6.1862     |  16.1 |  0.01
Modify  | 285.38     | 316.53     | 352.6      |  88.8 |  0.52
Other   |            | 42.51      |            |       |  0.07

Nlocal:        3313.12 ave        4535 max         192 min
Histogram: 3 3 4 3 0 1 4 10 18 18
Nghost:        17412.2 ave       23615 max        7137 min
Histogram: 5 5 6 0 0 3 17 11 1 16
Neighs:    1.82006e+06 ave 2.90727e+06 max       46460 min
Histogram: 7 6 0 1 2 2 13 14 8 11

Total # of neighbors = 1.1648379e+08
Ave neighs/atom = 549.34818
Ave special neighs/atom = 5.9990568
Neighbor list builds = 400000
Dangerous builds not checked
Total wall time: 16:45:25
