LAMMPS (29 Oct 2020)
OMP_NUM_THREADS environment is not set. Defaulting to 1 thread. (../comm.cpp:94)
  using 1 OpenMP thread(s) per MPI task
####################################################
#    This program is free software: you can redistribute it and/or modify
#    it under the terms of the GNU General Public License as published by
#    the Free Software Foundation, either version 3 of the License, or
#    (at your option) any later version.
#
#    This program is distributed in the hope that it will be useful,
#    but WITHOUT ANY WARRANTY; without even the implied warranty of
#    MERCHANTABILITY or FITNESS FOR A PARTICULAR PURPOSE.  See the
#    GNU General Public License for more details.


units		real        ## defines the units style used herein. More information: https://docs.lammps.org/units.html
atom_style	full        ## defines the atom style used herein. More information: https://docs.lammps.org/atom_style.html

# Styles
pair_style      lj/cut/coul/long 15.0 10.0      ## sets the formula(s) LAMMPS uses to compute pairwise interactions; here, lennard-jones (LJ) with long-range Coulomb interaction. More: https://docs.lammps.org/pair_lj_cut_coul.html
pair_modify     shift no                        ## the shift keyword determines whether a Lennard-Jones potential is shifted at its cutoff to 0.0. More: https://docs.lammps.org/pair_modify.html
kspace_style    pppm 1.0e-4                     ## defines a long-range solver for LAMMPS to compute long-range Coulombic interactions. Note: requires use of a matching pair style, i.e. PPPM with coul/long. More: https://docs.lammps.org/kspace_style.html
bond_style      harmonic                        ## defined based off the forcefield used to construct the system; models the atoms' interactions
angle_style     harmonic
dihedral_style  opls
improper_style  cvff
special_bonds   lj 0 0 1 coul 0 0 1

read_data       500K_TRP.lmps      ## input lammps datafile, equilibriated until structure nears experimental properties
Reading data file ...
  orthogonal box = (228.36200 228.36200 228.36200) to (371.63800 371.63800 371.63800)
  4 by 4 by 4 MPI processor grid
  reading atoms ...
  212040 atoms
  reading velocities ...
  212040 velocities
  scanning bonds ...
  2 = max bonds/atom
  scanning angles ...
  6 = max angles/atom
  scanning dihedrals ...
  15 = max dihedrals/atom
  scanning impropers ...
  2 = max impropers/atom
  reading bonds ...
  236020 bonds
  reading angles ...
  399920 angles
  reading dihedrals ...
  615800 dihedrals
  reading impropers ...
  127960 impropers
Finding 1-2 1-3 1-4 neighbors ...
  special bond factors lj:    0.0      0.0      1.0     
  special bond factors coul:  0.0      0.0      1.0     
     4 = max # of 1-2 neighbors
    10 = max # of 1-3 neighbors
    14 = max # of special neighbors
  special bonds CPU = 1.449 seconds
  read_data CPU = 3.654 seconds

dielectric      1.0
neighbor    	1.0 bin
neigh_modify	delay 0 every 1 check no        ## this is to make sure that the neighbor list is updated every timestep, and the atoms don't get lost as the system is being deformed ##

timestep	    1.0                             ## unit = fs, per "real" unit style
run_style       verlet                          ## defines algorithm used for simulation computation; verlet integration is a numerical method used to integrate Newton's equations of motion.

variable stress equal press*-1                         ## computes stress as the negative of press values
variable engStrain equal (lx-91.07191)/91.07191      ## computes engineering strain; lx_0 must be found and inputted manually (for now)

thermo		    20                                                               ## output log data (headers in thermo_style), recorded at every timestep in numList.txt
thermo_style    custom step vol temp press lx ly lz v_stress v_engStrain         ## data headers of output log file. More: https://docs.lammps.org/thermo_style.html

################# Deformation ##################

fix 1 all npt temp 500 500 100 y 1 1 100.0 z 1 1 100.0      ## stress normal to the x direction can vary; external pressure (y and z) = 1atm ##

fix 2 all deform 1 x scale 2.0 remap x                      ## sets a uniaxial (x-direction) deformation in motion, scaling a set amount (here, 4.0x) the initial length


################# Dumping ##################

reset_timestep 0

dump dump2 all custom 2000 sim.lammpstrj id mol type q xs ys zs ix iy iz

restart 4000 PMP.restart

run 		40000              ## this depends on the overall strain rate, where strain rate = deformScale / runTimeSteps (consider units!)
PPPM initialization ...
WARNING: System is not charge neutral, net charge = 0.034008 (../kspace.cpp:313)
  using 12-bit tables for long-range coulomb (../kspace.cpp:328)
  G vector (1/distance) = 0.2076702
  grid = 40 40 40
  stencil order = 5
  estimated absolute RMS force accuracy = 0.028649168
  estimated relative force accuracy = 8.6276118e-05
  using double precision FFTW3
  3d grid and FFT values/proc = 3375 1000
Neighbor list info ...
  update every 1 steps, delay 0 steps, check no
  max neighbors/atom: 2000, page size: 100000
  master list distance cutoff = 16
  ghost atom cutoff = 16
  binsize = 8, bins = 18 18 18
  1 neighbor lists, perpetual/occasional/extra = 1 0 0
  (1) pair lj/cut/coul/long, perpetual
      attributes: half, newton on
      pair build: half/bin/newton
      stencil: half/bin/3d/newton
      bin: standard
Per MPI rank memory allocation (min/avg/max) = 37.37 | 39.09 | 39.74 Mbytes
Step Volume Temp Press Lx Ly Lz v_stress v_engStrain 
       0    2941171.5    500.13023    13851.199      143.276      143.276      143.276   -13851.199   0.57321835 
      20    2963345.1    509.56262    1530.5617    143.34764    143.80357    143.75468   -1530.5617   0.57400496 
      40    2984409.8    505.49635     977.9318    143.41928    144.28081     144.2256    -977.9318   0.57479157 
      60    2980601.9    507.73324     9.344514    143.49091    144.16152     144.0888    -9.344514   0.57557818 
      80    2975519.9    506.04912   -373.46164    143.56255    143.99039    143.94221    373.46164   0.57636479 
     100    2975276.1    506.22257    -569.2694    143.63419    143.90935    143.93965     569.2694    0.5771514 
     120      2973792    504.59456   -1227.9088    143.70583    143.81854    143.88693    1227.9088     0.577938 
     140    2968987.8    504.28232   -1119.3738    143.77747    143.66976    143.73158    1119.3738   0.57872461 
     160      2963251     503.9451   -869.99959     143.8491     143.5134    143.53864    869.99959   0.57951122 
     180    2965087.6    505.68632    -1167.012    143.92074    143.51967    143.54984     1167.012   0.58029783 
     200    2961384.5    504.54791   -100.17441    143.99238    143.37724    143.44158    100.17441   0.58108444 
     220    2963309.8     503.6903   -258.77359    144.06402    143.38714    143.45356    258.77359   0.58187105 
     240    2964170.2    503.20952    464.94811    144.13566    143.36125    143.44979   -464.94811   0.58265766 
     260    2959476.6    501.77038    1082.5924    144.20729    143.17746    143.33526   -1082.5924   0.58344427 
     280      2962122    501.53627    719.51323    144.27893    143.14298    143.42669   -719.51323   0.58423088 
     300    2963200.5    502.89658   -501.39884    144.35057    143.09553    143.45526    501.39884   0.58501749 
     320    2962350.7    504.19959    450.62988    144.42221    143.01603    143.42266   -450.62988    0.5858041 
     340    2964275.5    500.90085   -983.22037    144.49385    143.02456    143.43614    983.22037   0.58659071 
     360      2963294    501.06736   -556.62924    144.56548    142.94609    143.39627    556.62924   0.58737731 
     380    2964378.7    501.18041   -57.377022    144.63712    142.93261    143.39123    57.377022   0.58816392 
     400      2965418    500.37247   -331.61099    144.70876    142.88435    143.41891    331.61099   0.58895053 
     420    2966739.3    499.69943   -404.44316     144.7804    142.90105    143.39506    404.44316   0.58973714 
     440    2965643.3    501.29824    245.37791    144.85204    142.82629    143.34619   -245.37791   0.59052375 
     460      2966633     500.2766   -152.62215    144.92367    142.77256    143.37708    152.62215   0.59131036 
     480    2966634.2    499.67931    157.84144    144.99531    142.72612    143.35293   -157.84144   0.59209697 
     500    2966715.2    499.12558    389.09299    145.06695    142.70268    143.30959   -389.09299   0.59288358 
     520    2967656.3    499.82876    288.47495    145.13859    142.70276    143.28421   -288.47495   0.59367019 
     540    2971541.8    499.99651   -235.63943    145.21023    142.71437    143.38936    235.63943    0.5944568 
     560    2974027.4      499.014    -516.8052    145.28186    142.74604    143.40671     516.8052   0.59524341 
     580      2972455    499.64507   -253.05687     145.3535    142.65252    143.35417    253.05687   0.59603002 
     600    2973628.5    499.41331   -434.92289    145.42514    142.66372    143.32887    434.92289   0.59681662 
     620    2975202.7    498.46764   -526.77625    145.49678    142.64672    143.35122    526.77625   0.59760323 
     640    2973698.5    500.12993     53.27697    145.56842    142.54634    143.30908    -53.27697   0.59838984 
     660      2974213    499.33682   -167.75038    145.64005    142.53674    143.27302    167.75038   0.59917645 
     680      2973706    499.22658    128.46466    145.71169    142.50021    143.21487   -128.46466   0.59996306 
     700    2975861.2     498.8768   -380.02103    145.78333    142.53089    143.21741    380.02103   0.60074967 
     720    2975306.6    499.99566   -138.05654    145.85497     142.4803     143.1712    138.05654   0.60153628 
     740    2974534.5    500.29534   -220.28584    145.92661    142.42304     143.1213    220.28584   0.60232289 
     760    2975432.3    500.68887    132.95824    145.99824    142.39196    143.12548   -132.95824    0.6031095 
     780    2976422.6    499.79435   -345.16138    146.06988    142.36924    143.12574    345.16138   0.60389611 
     800      2977124    499.65435   -177.71511    146.14152    142.35275    143.10587    177.71511   0.60468272 
     820    2977750.5    501.71096   -585.42867    146.21316    142.36945    143.04907    585.42867   0.60546933 
     840    2977773.2    499.64435   -723.29366     146.2848    142.34926    143.00038    723.29366   0.60625593 
     860    2977503.6    500.71098   -320.58363    146.35643    142.32456    142.94225    320.58363   0.60704254 
     880    2976000.1    499.78691   -135.99071    146.42807    142.26005    142.86493    135.99071   0.60782915 
     900    2976379.4    501.35702   -50.484833    146.49971    142.24193    142.83146    50.484833   0.60861576 
     920    2978577.1    500.20386   -360.00123    146.57135     142.2601    142.84882    360.00123   0.60940237 
     940    2978847.5    501.27363   -243.06469    146.64299    142.22721    142.82502    243.06469   0.61018898 
     960    2979975.5    500.18035   -154.50237    146.71462    142.20682    142.82981    154.50237   0.61097559 
     980    2980551.2    502.31757   -63.899978    146.78626    142.21215    142.78234    63.899978    0.6117622 
    1000    2981521.9    501.04639   -8.5228183     146.8579     142.1647    142.80681    8.5228183   0.61254881 
    1020    2984653.2    499.19888   -375.92076    146.92954    142.21661    142.83493    375.92076   0.61333542 
    1040    2984629.4    498.50197   -382.15992    147.00118    142.16186    142.81917    382.15992   0.61412203 
    1060    2986191.7     499.1537   -373.28596    147.07281    142.13197    142.85436    373.28596   0.61490864 
    1080    2987514.4    498.71677   -135.70516    147.14445    142.11524    142.86487    135.70516   0.61569524 
    1100    2988101.8    498.64755   -27.222976    147.21609    142.10211    142.83662    27.222976   0.61648185 
    1120    2988866.4    500.63498  -0.75225235    147.28773    142.10136    142.80444   0.75225235   0.61726846 
    1140    2990162.2    500.37018   -555.18272    147.35937    142.10277    142.79548    555.18272   0.61805507 
    1160    2990494.8    499.17854   -434.44908      147.431    142.09726     142.7475    434.44908   0.61884168 
    1180    2989485.2    499.34139   -246.14872    147.50264    142.01067    142.71697    246.14872   0.61962829 
    1200      2989736    499.54376   -229.28236    147.57428    141.98245    142.68801    229.28236    0.6204149 
    1220    2990418.4     499.7202   -305.61521    147.64592    141.99551    142.63822    305.61521   0.62120151 
    1240    2991905.2    499.78638   -519.44459    147.71756    141.99787    142.63756    519.44459   0.62198812 
    1260    2991164.8    500.30676   -343.79664    147.78919    141.94767    142.58354    343.79664   0.62277473 
    1280    2990511.7    500.33192   -20.811609    147.86083    141.94903    142.48198    20.811609   0.62356134 
    1300    2991614.7    500.03567   -143.14077    147.93247    141.96865    142.44581    143.14077   0.62434795 
    1320    2992326.4    500.29941   -125.44933    148.00411    141.96221     142.4172    125.44933   0.62513455 
    1340    2991647.1    500.37443   -250.94494    148.07575    141.91377    142.36456    250.94494   0.62592116 
    1360    2991308.9    499.74368   -280.27649    148.14738    141.82798     142.3657    280.27649   0.62670777 
    1380    2992112.5    499.19873   -400.10054    148.21902    141.86224    142.30074    400.10054   0.62749438 
    1400      2991398    500.36066   -214.72899    148.29066    141.86921    142.19105    214.72899   0.62828099 
    1420    2991090.7    500.78952   -527.61267     148.3623    141.86637    142.11063    527.61267    0.6290676 
    1440    2991374.9    500.71603   -445.13959    148.43394    141.79892    142.12312    445.13959   0.62985421 
    1460    2992682.4    499.07833   -380.24984    148.50557    141.78317    142.13243    380.24984   0.63064082 
    1480    2994145.5    500.36353   -289.67649    148.57721    141.74801    142.16861    289.67649   0.63142743 
    1500    2994661.1    500.21219   -179.05697    148.64885     141.7039    142.16881    179.05697   0.63221404 
    1520    2995207.6    500.03316   -125.29874    148.72049    141.68146    142.14877    125.29874   0.63300065 
    1540    2997277.2      499.056     114.9802    148.79213    141.75846    142.10127    -114.9802   0.63378726 
    1560    2997079.9    501.04002   -29.846222    148.86376    141.72845    142.05362    29.846222   0.63457386 
    1580      2996939    500.02364   -407.81536     148.9354    141.66084    142.04637    407.81536   0.63536047 
    1600    2997611.8    499.87136   -443.96872    149.00704    141.64935    142.02147    443.96872   0.63614708 
    1620    2998574.8    499.39582   -592.08922    149.07868    141.64006    142.00814    592.08922   0.63693369 
    1640    2999609.4    499.08178   -370.45839    149.15032    141.66047    141.96845    370.45839    0.6377203 
    1660    2999311.6    499.98312   -552.58156    149.22195    141.58998    141.95685    552.58156   0.63850691 
    1680    3000058.7    499.34285   -384.92871    149.29359    141.58333    141.93074    384.92871   0.63929352 
    1700    3000065.4    498.88647   -384.67596    149.36523    141.57577    141.87056    384.67596   0.64008013 
    1720    2999556.6    499.21818   -125.86567    149.43687    141.53583    141.81851    125.86567   0.64086674 
    1740      2998969    498.82706   -115.82622    149.50851    141.47913    141.77958    115.82622   0.64165335 
    1760    2998985.4    499.13671   -164.32817    149.58014    141.45351    141.73812    164.32817   0.64243996 
    1780    3000968.1    500.12949   -294.64256    149.65178    141.44745    141.77001    294.64256   0.64322657 
    1800      3002443    500.97474    -539.9603    149.72342    141.41944     141.7999     539.9603   0.64401318 
    1820    3003336.1    500.12477   -253.03785    149.79506    141.38347    141.81032    253.03785   0.64479978 
    1840    3003396.9    497.95044   -342.60301     149.8667    141.31104    141.81804    342.60301   0.64558639 
    1860    3002793.4    499.95056   -224.65819    149.93833    141.24352    141.78955    224.65819     0.646373 
    1880    3004367.5    499.38773   -437.04743    150.00997    141.18499    141.85492    437.04743   0.64715961 
    1900    3005140.5    499.99999   -603.86604    150.08161    141.18059    141.82811    603.86604   0.64794622 
    1920    3004508.8    499.47187   -385.27652    150.15325    141.14553    141.76585    385.27652   0.64873283 
    1940    3006364.2    498.20112   -415.00939    150.22489    141.12595    141.80542    415.00939   0.64951944 
    1960    3007583.9    500.51065   -417.55758    150.29652    141.12533    141.79595    417.55758   0.65030605 
    1980    3008445.9    499.01582   -342.71631    150.36816    141.13786    141.75643    342.71631   0.65109266 
    2000    3008375.8    498.91207   -161.49137     150.4398    141.11838    141.70519    161.49137   0.65187927 
    2020    3010444.7    498.94052   -488.11948    150.51144    141.12977    141.72371    488.11948   0.65266588 
    2040      3010531     499.6998    -477.1503    150.58308    141.10321    141.68701     477.1503   0.65345249 
    2060    3010318.7    498.72019   -392.15895    150.65471    141.06196    141.65106    392.15895   0.65423909 
    2080    3011588.6    500.01179    -410.2888    150.72635    141.01608    141.68955     410.2888    0.6550257 
    2100    3012069.1    500.67617   -365.06838    150.79799    141.02294    141.63794    365.06838   0.65581231 
    2120    3012381.3    499.82753   -399.99101    150.86963    141.04878    141.55942    399.99101   0.65659892 
    2140      3013112    498.32015   -488.38056    150.94127    141.01932    141.55613    488.38056   0.65738553 
    2160    3013783.5    498.70817   -455.43566     151.0129    141.00754    141.53233    455.43566   0.65817214 
    2180    3012845.4    500.75717   -157.99413    151.08454    140.97654    141.45229    157.99413   0.65895875 
    2200    3012535.1    500.27303   -269.09278    151.15618    140.96576     141.3815    269.09278   0.65974536 
    2220    3012826.5    500.80163   -231.00545    151.22782    140.95737     141.3366    231.00545   0.66053197 
    2240    3015596.1    500.55252   -346.76998    151.29946    140.98018    141.37667    346.76998   0.66131858 
    2260    3015109.9    502.51852   -304.78272    151.37109    140.93883    141.32843    304.78272   0.66210519 
    2280    3015321.8    501.70274   -408.42495    151.44273    140.92587     141.2845    408.42495    0.6628918 
    2300    3016353.8    501.83555   -390.24104    151.51437    140.93194    141.25995    390.24104    0.6636784 
    2320    3016938.2     500.6166   -488.48053    151.58601    140.86675     141.2859    488.48053   0.66446501 
    2340    3017528.8    502.03063   -470.66511    151.65765    140.86215    141.25141    470.66511   0.66525162 
    2360    3016876.6    500.91394    -143.0395    151.72928    140.87113    141.14521     143.0395   0.66603823 
    2380    3018447.8    502.05502    -201.9877    151.80092    140.87416    141.14904     201.9877   0.66682484 
    2400    3018908.6    501.16806   -346.88675    151.87256    140.83798    141.14025    346.88675   0.66761145 
    2420    3018877.3    499.68957   -384.29241     151.9442    140.83498    141.07525    384.29241   0.66839806 
    2440    3019822.9    500.21804   -335.84624    152.01584    140.85379     141.0341    335.84624   0.66918467 
    2460    3020750.3    501.17783   -149.83118    152.08747     140.8157     141.0491    149.83118   0.66997128 
    2480    3019944.4    501.22352   -222.46739    152.15911    140.77615    140.98467    222.46739   0.67075789 
    2500    3022362.3    500.23883   -440.03535    152.23075     140.8466    140.96061    440.03535    0.6715445 
    2520    3023724.3    501.58576   -579.20296    152.30239    140.89861    140.90576    579.20296   0.67233111 
    2540    3022753.4    499.73362   -549.69251    152.37403    140.78606    140.90686    549.69251   0.67311771 
    2560    3022020.1    500.08075   -241.38101    152.44566    140.72869    140.86388    241.38101   0.67390432 
    2580    3022216.9    500.46952   -96.276069     152.5173    140.68046    140.85515    96.276069   0.67469093 
    2600    3024638.8    500.38969    -458.0878    152.58894    140.68248    140.89982     458.0878   0.67547754 
    2620    3024564.2     501.4684   -508.69402    152.66058    140.64565     140.8671    508.69402   0.67626415 
    2640    3024223.2    501.24193   -258.61958    152.73222    140.61196    140.81889    258.61958   0.67705076 
    2660    3024899.4    498.87401   -208.91293    152.80385     140.5467    140.84971    208.91293   0.67783737 
    2680    3025849.1     499.5027   -147.14432    152.87549    140.54416    140.83046    147.14432   0.67862398 
    2700    3026606.2    499.52952   -342.35693    152.94713    140.52879    140.81512    342.35693   0.67941059 
    2720    3028235.7    500.10013   -497.84871    153.01877    140.57413    140.77955    497.84871    0.6801972 
    2740    3027987.8    499.64676    -382.2811    153.09041    140.51234    140.76403     382.2811   0.68098381 
    2760    3027701.4    499.64996     -199.295    153.16204    140.45292     140.7444      199.295   0.68177042 
    2780    3028075.7    501.44693    -18.78985    153.23368    140.45942    140.68948     18.78985   0.68255702 
    2800      3030268    499.89283   -226.50688    153.30532     140.4227    140.76235    226.50688   0.68334363 
    2820    3031939.8    499.49393   -419.18604    153.37696    140.41668    140.78025    419.18604   0.68413024 
    2840    3033724.3    500.54756   -553.60709     153.4486    140.40967    140.80438    553.60709   0.68491685 
    2860    3034942.8    500.03591   -578.69388    153.52023    140.34713    140.85795    578.69388   0.68570346 
    2880    3033585.6    500.09469    -463.5483    153.59187    140.27244    140.80422     463.5483   0.68649007 
    2900    3033834.5    499.57491   -330.52913    153.66351    140.28788    140.73463    330.52913   0.68727668 
    2920    3035055.4    499.16168   -389.27643    153.73515    140.28256      140.731    389.27643   0.68806329 
    2940    3036407.9    499.13596   -229.23531    153.80679    140.23907    140.77177    229.23531    0.6888499 
    2960    3037301.1    499.29782   -393.44415    153.87842    140.19608    140.79079    393.44415   0.68963651 
    2980      3038905    498.86439   -346.49286    153.95006    140.19435    140.80133    346.49286   0.69042312 
    3000    3040662.1    499.20072   -306.59855     154.0217     140.2019    140.80963    306.59855   0.69120973 
    3020    3041890.8    499.42856   -451.92033    154.09334    140.21066    140.79224    451.92033   0.69199633 
    3040    3041736.9    498.97131   -606.30123    154.16498    140.16192    140.76863    606.30123   0.69278294 
    3060    3042801.9    497.81764   -613.76697    154.23661     140.1519    140.76257    613.76697   0.69356955 
    3080    3044252.9    498.37553    -615.8683    154.30825    140.21111    140.70488     615.8683   0.69435616 
    3100    3043913.9    499.47768   -255.38683    154.37989    140.14869    140.68655    255.38683   0.69514277 
    3120    3045340.7    500.49603   -194.39636    154.45153    140.09221    140.74394    194.39636   0.69592938 
    3140    3046591.5    498.51298   -302.47957    154.52317    140.04069    140.78824    302.47957   0.69671599 
    3160    3045890.4    500.01501    -308.6494     154.5948    140.00412    140.72737     308.6494    0.6975026 
    3180    3045190.2    500.79148   -174.12681    154.66644    139.96862    140.66552    174.12681   0.69828921 
    3200    3045720.9    500.53555   -202.49935    154.73808    139.93785    140.65582    202.49935   0.69907582 
    3220    3046058.3    499.76803   -235.53431    154.80972    139.91654    140.62772    235.53431   0.69986243 
    3240      3047096    501.63835    -521.5108    154.88136    139.93262     140.5944     521.5108   0.70064904 
    3260    3048603.2    501.40105   -536.62913    154.95299    139.90015    140.63154    536.62913   0.70143564 
    3280    3048533.4    500.99359    -511.4291    155.02463    139.88436    140.57921     511.4291   0.70222225 
    3300    3047803.1    500.42527   -439.52356    155.09627    139.82397    140.54128    439.52356   0.70300886 
    3320    3047619.2    500.39518   -288.42905    155.16791    139.75299    140.53927    288.42905   0.70379547 
    3340    3049365.4    500.22357   -279.88404    155.23955    139.76357    140.54426    279.88404   0.70458208 
    3360    3049200.5    501.70035     -173.593    155.31118    139.73155    140.50403      173.593   0.70536869 
    3380    3050517.4    501.33067   -343.26347    155.38282    139.71417    140.51739    343.26347    0.7061553 
    3400    3050364.8    501.47243    -328.8694    155.45446    139.64377    140.51641     328.8694   0.70694191 
    3420    3051144.4    501.17367   -427.71839     155.5261    139.63826    140.49312    427.71839   0.70772852 
    3440    3052015.9    501.02648   -467.56604    155.59774    139.59546    140.51162    467.56604   0.70851513 
    3460      3052949    499.20451   -516.25464    155.66937    139.56572    140.51983    516.25464   0.70930174 
    3480    3055282.5    500.63929   -492.54973    155.74101    139.59412    140.53396    492.54973   0.71008835 
    3500    3055132.3    500.68393   -384.65202    155.81265    139.56038    140.49639    384.65202   0.71087495 
    3520    3056195.2    500.97028   -373.16427    155.88429    139.53658    140.50465    373.16427   0.71166156 
    3540    3055707.2    500.84503   -323.92242    155.95593    139.51483    140.43957    323.92242   0.71244817 
    3560      3056120    501.07057   -341.73501    156.02756    139.54705    140.36163    341.73501   0.71323478 
    3580    3057078.9    501.11866   -297.49013     156.0992    139.52432     140.3641    297.49013   0.71402139 
    3600    3057921.6    501.10143   -419.63126    156.17084     139.5058    140.35702    419.63126     0.714808 
    3620    3057595.6    501.72013   -207.60018    156.24248    139.44864    140.33521    207.60018   0.71559461 
    3640    3059892.1    500.38664   -335.16121    156.31412    139.48862    140.33601    335.16121   0.71638122 
    3660    3060931.3    500.19438   -488.44387    156.38575    139.46017    140.34799    488.44387   0.71716783 
    3680    3060060.6     498.5629   -519.72602    156.45739     139.4665    140.23746    519.72602   0.71795444 
    3700    3061988.4    499.54829   -572.01998    156.52903    139.46932    140.25875    572.01998   0.71874105 
    3720      3062418    499.35084   -540.69179    156.60067    139.46762    140.21597    540.69179   0.71952766 
    3740    3063640.8     500.6762   -526.58701    156.67231    139.44572    140.22983    526.58701   0.72031426 
    3760    3062866.6    499.82826   -249.66632    156.74394    139.35195    140.22462    249.66632   0.72110087 
    3780    3064868.2    499.89963   -507.77119    156.81558    139.34602    140.25812    507.77119   0.72188748 
    3800    3068633.4    500.23729   -583.26063    156.88722    139.39608     140.3159    583.26063   0.72267409 
    3820    3067983.9    500.30555    -474.6854    156.95886    139.41171    140.20645     474.6854    0.7234607 
    3840    3068690.6    499.70867   -281.25153     157.0305    139.40518    140.18134    281.25153   0.72424731 
    3860    3070176.1    500.69488   -309.57879    157.10213    139.37116    140.21946    309.57879   0.72503392 
    3880    3071099.2      500.738   -379.12438    157.17377    139.34008    140.22896    379.12438   0.72582053 
    3900    3072743.5    500.04703   -496.16292    157.24541    139.32658    140.25371    496.16292   0.72660714 
    3920    3072632.1    499.51848     -485.046    157.31705    139.26201    140.24975      485.046   0.72739375 
    3940    3074118.6    499.91848   -277.88754    157.38869    139.31784    140.19754    277.88754   0.72818036 
    3960    3075187.4      500.016   -377.70786    157.46032    139.24936    140.25141    377.70786   0.72896697 
    3980    3075191.8    499.38812   -337.13028    157.53196     139.2094    140.22808    337.13028   0.72975358 
    4000    3076944.1    498.60075   -360.06844     157.6036    139.21637    140.23718    360.06844   0.73054018 
    4020    3077716.8    498.11981   -596.36969    157.67524    139.22469    140.20029    596.36969   0.73132679 
    4040      3076340    499.78325   -350.40138    157.74688    139.11583    140.18353    350.40138    0.7321134 
    4060      3076283    499.64334   -511.68681    157.81851    139.06349    140.17004    511.68681   0.73290001 
    4080    3079931.1    498.84126   -525.43854    157.89015    139.11014    140.22556    525.43854   0.73368662 
    4100    3080410.5    500.39634   -517.51701    157.96179    139.07884    140.21532    517.51701   0.73447323 
    4120    3080052.9    500.30732   -369.46156    158.03343    139.06137     140.1531    369.46156   0.73525984 
    4140      3081839    498.43081   -581.25795    158.10507     139.1016    140.13029    581.25795   0.73604645 
    4160    3083344.7    499.51469   -607.80515     158.1767    139.13763    140.09897    607.80515   0.73683306 
    4180      3082174     499.4872   -468.71957    158.24834    139.05602    140.06454    468.71957   0.73761967 
    4200    3081041.1    499.27619   -345.75153    158.31998    139.03793    139.96791    345.75153   0.73840628 
    4220    3082565.8    499.37215   -134.43933    158.39162    139.05664      139.955    134.43933   0.73919289 
    4240    3083996.9    500.61293   -448.13892    158.46326    139.06427    139.94899    448.13892   0.73997949 
    4260    3085558.8    500.17455   -762.24474    158.53489     139.0469    139.97409    762.24474    0.7407661 
    4280    3085535.7    501.06511   -582.70091    158.60653    139.03632    139.92047    582.70091   0.74155271 
    4300    3086198.7    499.90844   -434.95526    158.67817    139.04756    139.87604    434.95526   0.74233932 
    4320    3086592.4    500.33025   -226.97747    158.74981    139.02428    139.85417    226.97747   0.74312593 
    4340    3086050.7    500.28816   -356.76754    158.82145    138.95499    139.83625    356.76754   0.74391254 
    4360    3088298.8    501.58618   -553.77116    158.89308    138.96685    139.86308    553.77116   0.74469915 
    4380    3090044.9    499.39869   -646.53952    158.96472    138.99624    139.84952    646.53952   0.74548576 
    4400    3090078.6    500.15966   -408.31169    159.03636    138.95839    139.82613    408.31169   0.74627237 
    4420    3089757.6    501.41229   -304.88567      159.108    138.97678    139.73015    304.88567   0.74705898 
    4440    3091121.2    500.30576    -439.2282    159.17964    138.94597     139.7599     439.2282   0.74784559 
    4460    3091173.2     500.3304   -518.93751    159.25127    138.90961    139.73595    518.93751    0.7486322 
    4480    3092728.8    500.66132   -701.45655    159.32291    138.88914      139.764    701.45655    0.7494188 
    4500    3092314.7    500.37471   -559.97363    159.39455    138.86236    139.70941    559.97363   0.75020541 
    4520    3092199.8    500.26553   -377.68781    159.46619    138.81138    139.69274    377.68781   0.75099202 
    4540    3092505.9    499.39736   -428.39867    159.53783    138.82735    139.62778    428.39867   0.75177863 
    4560    3091966.4    500.14729   -463.86788    159.60946     138.7365    139.63214    463.86788   0.75256524 
    4580    3091622.2    500.27968    -95.82301     159.6811    138.73867    139.55177     95.82301   0.75335185 
    4600    3092534.5     501.3529   -437.83671    159.75274    138.73801    139.53102    437.83671   0.75413846 
    4620    3092694.8    498.99531   -698.02546    159.82438    138.69644    139.51752    698.02546   0.75492507 
    4640    3092114.6    500.60307   -377.70479    159.89602    138.66061    139.46487    377.70479   0.75571168 
    4660    3093141.8    499.18126   -697.28407    159.96765    138.62195    139.48762    697.28407   0.75649829 
    4680    3092872.8    499.82924   -470.50267    160.03929    138.58918    139.44601    470.50267    0.7572849 
    4700    3092802.2     500.1638   -446.14407    160.11093    138.50915    139.46097    446.14407   0.75807151 
    4720    3093027.9     500.2677   -425.31974    160.18257    138.48553    139.43256    425.31974   0.75885811 
    4740    3094474.2    499.89046   -669.52879    160.25421    138.45731    139.46382    669.52879   0.75964472 
    4760    3093058.4    499.61463   -507.09608    160.32584    138.35797    139.43776    507.09608   0.76043133 
    4780    3093151.1    500.24183   -535.09884    160.39748    138.34715    139.39056    535.09884   0.76121794 
    4800    3093469.7    501.08645    -536.6006    160.46912    138.36063    139.32911     536.6006   0.76200455 
    4820    3093747.3    501.06204   -318.31909    160.54076    138.31037    139.33004    318.31909   0.76279116 
    4840    3094997.8    499.60909    -563.3117     160.6124    138.34648    139.28783     563.3117   0.76357777 
    4860    3094459.8    499.34909   -498.88521    160.68403    138.27042     139.2781    498.88521   0.76436438 
    4880    3094933.8    499.88095   -474.31289    160.75567    138.24301    139.26496    474.31289   0.76515099 
    4900    3095534.1    499.46251   -473.03641    160.82731    138.21956    139.25356    473.03641    0.7659376 
    4920    3095803.4    499.06707    -443.8069    160.89895    138.13956    139.28428     443.8069   0.76672421 
    4940    3095959.9    499.41038   -375.28365    160.97059    138.17407    139.19456    375.28365   0.76751082 
    4960    3098740.6     500.1347   -501.03632    161.04222    138.15741    139.27439    501.03632   0.76829742 
    4980    3100503.6    499.04394   -522.53583    161.11386    138.16811    139.28089    522.53583   0.76908403 
    5000    3102982.4    499.60445   -715.88444     161.1855    138.19453    139.30365    715.88444   0.76987064 
    5020    3102817.5    499.29916   -674.29329    161.25714    138.14428    139.28501    674.29329   0.77065725 
    5040    3103378.5    499.72169   -618.88438    161.32878    138.10392    139.28903    618.88438   0.77144386 
    5060    3104057.2    498.64055   -435.90932    161.40041    138.07294    139.28889    435.90932   0.77223047 
    5080    3106071.5     498.1092   -484.14035    161.47205    138.07758    139.31277    484.14035   0.77301708 
    5100    3107778.3    500.00932   -509.68748    161.54369    138.08616    139.31885    509.68748   0.77380369 
    5120      3108001      500.117   -424.62363    161.61533    138.07104    139.28232    424.62363    0.7745903 
    5140    3109202.3    497.73222   -589.83924    161.68697    138.07479    139.27064    589.83924   0.77537691 
    5160      3108285    500.47692   -354.00011     161.7586    137.98946    139.25395    354.00011   0.77616352 
    5180    3108881.4     499.4101   -282.95275    161.83024    137.99082    139.21764    282.95275   0.77695013 
    5200    3109697.2    501.08922   -562.14629    161.90188    137.95953    139.22413    562.14629   0.77773673 
    5220    3110030.8    500.03201   -581.48431    161.97352    137.95849    139.17853    581.48431   0.77852334 
    5240    3110589.8    500.87081   -599.80741    162.04516    137.95045    139.15012    599.80741   0.77930995 
    5260    3111920.8    501.02653   -618.92206    162.11679    137.95623    139.14231    618.92206   0.78009656 
    5280    3111003.5    500.92526   -294.80064    162.18843    137.90773    139.08876    294.80064   0.78088317 
    5300    3111004.7    501.61179   -110.07784    162.26007    137.91296    139.02212    110.07784   0.78166978 
    5320    3112962.3    501.45312   -412.20937    162.33171    137.95573    139.00511    412.20937   0.78245639 
    5340    3114754.6    501.30661     -495.564    162.40335     137.9244    139.05537      495.564     0.783243 
    5360    3115485.7    502.40375   -478.65146    162.47498    137.87987    139.07158    478.65146   0.78402961 
    5380    3114487.2    501.56204   -316.33836    162.54662    137.85089    138.99495    316.33836   0.78481622 
    5400    3116191.8    501.44438   -404.42134    162.61826    137.86076    138.99981    404.42134   0.78560283 
    5420    3118112.1    500.90081   -612.22301     162.6899    137.87374    139.01113    612.22301   0.78638944 
    5440    3119188.7     501.1948   -910.47532    162.76154    137.89661    138.97487    910.47532   0.78717604 
    5460    3120329.2    500.62243   -688.60701    162.83317     137.8968    138.96433    688.60701   0.78796265 
    5480    3120896.7    500.45884   -380.98918    162.90481    137.86867    138.95683    380.98918   0.78874926 
    5500    3120766.1    500.15539   -242.25314    162.97645    137.82865    138.93027    242.25314   0.78953587 
    5520    3123560.3    500.48539   -567.88312    163.04809    137.87146     138.9504    567.88312   0.79032248 
    5540    3123802.4    500.42584   -627.21686    163.11973    137.81789    138.95414    627.21686   0.79110909 
    5560    3123830.2    501.23057   -344.60695    163.19136     137.7855    138.92702    344.60695    0.7918957 
    5580    3124427.8     499.3451   -317.02036      163.263    137.80379     138.8742    317.02036   0.79268231 
    5600    3125396.3    500.61833     -446.796    163.33464    137.77796    138.88235      446.796   0.79346892 
    5620    3126959.5    499.47999   -465.42962    163.40628    137.72415    138.94516    465.42962   0.79425553 
    5640    3127528.2    499.88469   -504.12805    163.47792    137.72893    138.90471    504.12805   0.79504214 
    5660    3128627.8    500.76363    -269.3764    163.54955    137.72321    138.89845     269.3764   0.79582875 
    5680    3129167.9    501.04279   -381.25657    163.62119    137.69001    138.89509    381.25657   0.79661535 
    5700    3130976.4    500.29945   -539.69049    163.69283    137.69882    138.90565    539.69049   0.79740196 
    5720    3131391.4     499.6179   -619.36671    163.76447     137.6987    138.86342    619.36671   0.79818857 
    5740    3131540.7    499.90099     -463.579    163.83611    137.65779    138.85056      463.579   0.79897518 
    5760    3132501.2    500.37658    -391.2834    163.90774    137.59213     138.8987     391.2834   0.79976179 
    5780    3133351.1    500.18307   -513.30093    163.97938    137.61297    138.85465    513.30093    0.8005484 
    5800    3134397.2    498.77588   -481.83923    164.05102    137.57429    138.87939    481.83923   0.80133501 
    5820    3135824.1    499.85366    -504.0384    164.12266      137.551    138.90549     504.0384   0.80212162 
    5840    3137137.8    500.66785   -583.79535     164.1943    137.56126    138.89269    583.79535   0.80290823 
    5860    3137999.4    500.04762   -281.77995    164.26593    137.53458    138.89718    281.77995   0.80369484 
    5880    3138166.7    499.27003   -262.36175    164.33757    137.52141    138.85734    262.36175   0.80448145 
    5900    3139208.9    499.34465   -320.15788    164.40921    137.50624    138.85825    320.15788   0.80526806 
    5920    3141449.5    501.12952   -403.01208    164.48085    137.51888    138.88407    403.01208   0.80605467 
    5940    3141259.2    499.40947   -403.96188    164.55249    137.48265    138.85177    403.96188   0.80684127 
    5960    3140628.1     498.9289   -602.13728    164.62412    137.39385    138.85315    602.13728   0.80762788 
    5980    3140695.5    499.39372   -756.29211    164.69576    137.36237    138.82754    756.29211   0.80841449 
    6000    3141032.5    498.67129   -505.99784     164.7674    137.30219     138.8429    505.99784    0.8092011 
    6020    3141149.8    498.78115   -502.52041    164.83904    137.31828    138.77148    502.52041   0.80998771 
    6040      3140113    498.98087   -286.75277    164.91068    137.26507    138.71916    286.75277   0.81077432 
    6060    3139486.4    498.10952   -188.17629    164.98231    137.13961    138.75808    188.17629   0.81156093 
    6080    3142196.9    498.25756   -395.87267    165.05395    137.16894    138.78793    395.87267   0.81234754 
    6100    3143315.5    498.61833   -468.16139    165.12559    137.15209    138.79414    468.16139   0.81313415 
    6120    3140960.3    498.88467   -455.32566    165.19723    137.08495    138.69791    455.32566   0.81392076 
    6140    3141828.4    499.79512   -573.51437    165.26887    137.01938    138.74246    573.51437   0.81470737 
    6160    3144013.2    499.48372   -793.17102     165.3405    137.01747    138.78073    793.17102   0.81549398 
    6180    3143809.6    500.57317   -616.27276    165.41214    136.95032    138.77965    616.27276   0.81628058 
    6200      3143284    499.02068   -519.00604    165.48378    136.93457    138.71233    519.00604   0.81706719 
    6220    3144559.9    499.58791   -304.93033    165.55542    136.91851    138.72486    304.93033    0.8178538 
    6240    3145997.6    499.97635   -205.11292    165.62706    136.89464    138.75245    205.11292   0.81864041 
    6260    3146901.3     500.8331   -439.10383    165.69869    136.85307    138.77444    439.10383   0.81942702 
    6280    3146886.1    500.88049   -215.83553    165.77033    136.84685    138.72011    215.83553   0.82021363 
    6300    3147605.7     499.9478   -210.98297    165.84197    136.85268    138.68598    210.98297   0.82100024 
    6320    3148597.5    498.92105   -271.03604    165.91361    136.82805    138.69475    271.03604   0.82178685 
    6340    3149128.3    499.96482   -498.36952    165.98525    136.81909    138.66733    498.36952   0.82257346 
    6360    3150358.9    500.98768   -640.73466    166.05688    136.81061    138.67028    640.73466   0.82336007 
    6380    3151574.5    499.79378   -729.51509    166.12852    136.81484    138.65967    729.51509   0.82414668 
    6400    3152514.5    501.07232   -828.02686    166.20016     136.7826    138.67392    828.02686   0.82493329 
    6420    3152426.2    501.75431   -606.97456     166.2718    136.70573    138.68824    606.97456   0.82571989 
    6440    3153889.6    500.32811   -464.47222    166.34344    136.66838    138.73077    464.47222    0.8265065 
    6460    3153269.3    501.74594   -277.22398    166.41507    136.65721     138.6551    277.22398   0.82729311 
    6480    3152910.6    500.08128   -50.285986    166.48671    136.62966    138.60761    50.285986   0.82807972 
    6500    3154773.3    500.79329   -373.09155    166.55835    136.66843    138.59052    373.09155   0.82886633 
    6520    3155593.6    502.00196   -633.18528    166.62999    136.65817    138.57736    633.18528   0.82965294 
    6540    3154485.2    500.28778   -627.04902    166.70163    136.66529    138.46195    627.04902   0.83043955 
    6560    3155944.5    500.87976    -532.2144    166.77326    136.64536    138.48669     532.2144   0.83122616 
    6580      3156896    501.24077    -449.1521     166.8449    136.61825    138.49643     449.1521   0.83201277 
    6600    3157865.4    499.49864   -674.33306    166.91654    136.64504    138.45237    674.33306   0.83279938 
    6620    3159000.3    499.96915   -632.59262    166.98818    136.65382    138.43381    632.59262   0.83358599 
    6640    3158698.5    501.19862   -411.83517    167.05982    136.67178    138.34305    411.83517    0.8343726 
    6660    3160600.9    499.36575   -400.22922    167.13145    136.68641    138.35222    400.22922    0.8351592 
    6680    3161484.9    498.96763   -378.00896    167.20309    136.70842    138.30934    378.00896   0.83594581 
    6700    3162205.8    499.57441   -511.95221    167.27473      136.693    138.29724    511.95221   0.83673242 
    6720    3163886.3    499.75831   -540.72139    167.34637    136.72895    138.27514    540.72139   0.83751903 
    6740    3163834.9    500.11685   -512.47709    167.41801    136.68313    138.26006    512.47709   0.83830564 
    6760    3163593.1    499.73274   -366.73764    167.48964    136.65077    138.22308    366.73764   0.83909225 
    6780    3165437.6    499.03175   -531.45462    167.56128     136.6601    138.23511    531.45462   0.83987886 
    6800    3165584.9    500.32047   -447.69177    167.63292    136.68312    138.15919    447.69177   0.84066547 
    6820    3166013.1     500.2673   -313.57006    167.70456    136.73435    138.06711    313.57006   0.84145208 
    6840    3167561.2    499.92645   -515.10772     167.7762    136.75648    138.05329    515.10772   0.84223869 
    6860    3168804.3    500.26869   -428.66718    167.84783    136.75246    138.05258    428.66718    0.8430253 
    6880    3168901.4     499.8848   -291.32156    167.91947      136.736    138.01453    291.32156   0.84381191 
    6900    3168854.9    500.15573   -413.12572    167.99111    136.67755    138.01264    413.12572   0.84459851 
    6920    3170658.8    499.31825   -654.23212    168.06275    136.69951    138.01016    654.23212   0.84538512 
    6940      3172181    500.18534   -507.21474    168.13439    136.69612    138.02102    507.21474   0.84617173 
    6960    3172284.6    499.41366   -479.85485    168.20602     136.6489    138.01442    479.85485   0.84695834 
    6980    3172228.1     498.7707   -388.74285    168.27766    136.65397    137.94809    388.74285   0.84774495 
    7000    3174432.6    499.42032   -542.05023     168.3493    136.66259    137.97651    542.05023   0.84853156 
    7020    3174920.6    498.96922   -634.03957    168.42094     136.6507    137.95102    634.03957   0.84931817 
    7040    3174408.5     498.7278   -460.36732    168.49258    136.60355    137.91772    460.36732   0.85010478 
    7060    3173800.2    499.25259   -617.79035    168.56421    136.56075    137.87589    617.79035   0.85089139 
    7080    3174761.2    498.90594   -430.35685    168.63585    136.54485    137.87509    430.35685     0.851678 
    7100    3175238.9    499.53265   -358.23347    168.70749    136.52326    137.85909    358.23347   0.85246461 
    7120    3175577.9    498.92145   -647.48993    168.77913    136.50514    137.83358    647.48993   0.85325122 
    7140      3176302    498.21678   -578.96763    168.85077    136.49782    137.81391    578.96763   0.85403782 
    7160    3175817.9    498.15035   -706.09982     168.9224    136.43007    137.80286    706.09982   0.85482443 
    7180    3177430.7    499.40325   -590.10134    168.99404    136.38939     137.8555    590.10134   0.85561104 
    7200    3176832.9    500.28127   -381.87013    169.06568    136.34489    137.81613    381.87013   0.85639765 
    7220      3177983    499.25499   -233.13282    169.13732    136.32576    137.82697    233.13282   0.85718426 
    7240    3178259.2     500.8709    -391.4781    169.20896    136.34642    137.75971     391.4781   0.85797087 
    7260    3179418.3     500.4905   -567.71366    169.28059    136.34413    137.75395    567.71366   0.85875748 
    7280    3181087.5    501.00973   -612.26216    169.35223    136.29405    137.81859    612.26216   0.85954409 
    7300    3181465.4      500.672   -538.17838    169.42387    136.23556    137.83583    538.17838    0.8603307 
    7320    3181999.6    499.53318   -341.48098    169.49551    136.21756    137.81892    341.48098   0.86111731 
    7340    3183168.3    501.17914   -392.95788    169.56715    136.18636    137.84286    392.95788   0.86190392 
    7360    3185004.3    500.89423   -458.79317    169.63878     136.1918    137.85862    458.79317   0.86269053 
    7380      3185166    501.35129   -405.42309    169.71042    136.17662    137.82278    405.42309   0.86347713 
    7400    3185730.6    502.19568   -513.64999    169.78206    136.14979     137.8162    513.64999   0.86426374 
    7420    3188058.2    503.56687   -432.34121     169.8537    136.15622    137.85222    432.34121   0.86505035 
    7440    3189226.7    502.97501   -662.15599    169.92534     136.1601    137.84068    662.15599   0.86583696 
    7460    3188592.6    502.02757   -738.58385    169.99697    136.10197    137.81403    738.58385   0.86662357 
    7480    3189713.2    500.85937   -605.44567    170.06861    136.04766     137.8594    605.44567   0.86741018 
    7500    3191788.3    501.99727   -507.10488    170.14025    136.08127    137.85695    507.10488   0.86819679 
    7520      3193492    502.32016   -402.30039    170.21189    136.09272    137.86088    402.30039    0.8689834 
    7540      3194806    502.51325   -538.94578    170.28353      136.055    137.89781    538.94578   0.86977001 
    7560    3196447.7    501.99164   -528.01354    170.35516     135.9868    137.97981    528.01354   0.87055662 
    7580    3196786.2    502.27171   -524.34756     170.4268    135.95504    137.96864    524.34756   0.87134323 
    7600    3196264.5    500.91798   -373.27001    170.49844    135.92078    137.92292    373.27001   0.87212984 
    7620    3198080.2    501.36706   -339.39062    170.57008    135.91752    137.94662    339.39062   0.87291644 
    7640    3199995.6    500.06521   -554.22831    170.64172    135.99693    137.89072    554.22831   0.87370305 
    7660    3200091.7    501.04861   -567.71418    170.71335     135.9767    137.85751    567.71418   0.87448966 
    7680    3200185.3    499.76961   -460.08974    170.78499    135.89802    137.88349    460.08974   0.87527627 
    7700    3202660.7    500.61282   -528.72222    170.85663    135.89504    137.93532    528.72222   0.87606288 
    7720    3203520.5    500.21185   -576.01493    170.92827    135.90878    137.90058    576.01493   0.87684949 
    7740    3204440.6    500.81728   -521.72815    170.99991    135.91305    137.87808    521.72815    0.8776361 
    7760    3203177.5    499.95147   -164.48077    171.07154     135.8305    137.84973    164.48077   0.87842271 
    7780    3203611.9    500.59297   -226.95428    171.14318    135.89245     137.7479    226.95428   0.87920932 
    7800    3204015.7    500.60534   -605.55305    171.21482    135.89041    137.70968    605.55305   0.87999593 
    7820    3204697.9    499.60223   -752.59584    171.28646    135.88773    137.68411    752.59584   0.88078254 
    7840    3204658.1    499.61184   -424.55803     171.3581    135.84606    137.66705    424.55803   0.88156915 
    7860    3204747.9    498.23327   -460.55786    171.42973    135.81273    137.64716    460.55786   0.88235575 
    7880    3205782.2    498.87246   -499.47337    171.50137    135.81159    137.63522    499.47337   0.88314236 
    7900    3206862.4    500.89323   -605.26599    171.57301    135.83845     137.5969    605.26599   0.88392897 
    7920    3205794.7    498.77713   -353.97278    171.64465    135.82456    137.50774    353.97278   0.88471558 
    7940      3204024    500.33938    -212.5456    171.71629    135.78916    137.41026     212.5456   0.88550219 
    7960    3205806.3    499.16896   -492.55674    171.78792    135.81468    137.40354    492.55674    0.8862888 
    7980    3206538.2    499.99411   -606.29923    171.85956    135.80183    137.39063    606.29923   0.88707541 
    8000    3208339.5    500.43479   -632.87106     171.9312    135.81044    137.40182    632.87106   0.88786202 
    8020    3207918.3    500.14554   -571.64539    172.00284    135.80599    137.33106    571.64539   0.88864863 
    8040    3208412.4    500.09275    -387.2495    172.07448    135.80337    137.29768     387.2495   0.88943524 
    8060    3208795.2    498.79961   -305.69131    172.14611    135.75646    137.30434    305.69131   0.89022185 
    8080    3208637.5    499.70374   -307.85652    172.21775    135.74406    137.25302    307.85652   0.89100846 
    8100    3209920.2    500.09616     -434.844    172.28939    135.75706    137.23765      434.844   0.89179507 
    8120    3210921.2    500.24087   -393.44093    172.36103    135.73907    137.24158    393.44093   0.89258167 
    8140    3210900.4    500.08898   -593.54183    172.43267    135.71831    137.20465    593.54183   0.89336828 
    8160    3210608.9    500.07982   -404.95817     172.5043     135.7104    137.14322    404.95817   0.89415489 
    8180    3212701.9    500.54891   -507.39859    172.57594     135.7105    137.17555    507.39859    0.8949415 
    8200    3214677.5     499.3263   -355.01178    172.64758    135.73229    137.18093    355.01178   0.89572811 
    8220    3215616.9    499.57525   -544.18483    172.71922    135.70498     137.1917    544.18483   0.89651472 
    8240    3216220.3    500.25677   -656.53896    172.79086    135.72505    137.14028    656.53896   0.89730133 
    8260    3217228.4    500.02405   -498.37678    172.86249    135.73987    137.11144    498.37678   0.89808794 
    8280    3217889.4    498.18626   -147.44675    172.93413    135.75391    137.06862    147.44675   0.89887455 
    8300    3217567.9    499.29082   -37.996783    173.00577    135.72782    137.02451    37.996783   0.89966116 
    8320    3219080.6    499.91893   -241.66319    173.07741    135.73599    137.02394    241.66319   0.90044777 
    8340    3221182.4    498.52231    -515.9251    173.14905    135.76127    137.03116     515.9251   0.90123438 
    8360    3220763.3    499.00791   -452.23016    173.22068    135.75219    136.96582    452.23016   0.90202098 
    8380      3220743     501.1341   -659.97905    173.29232    135.69982    136.96118    659.97905   0.90280759 
    8400    3220988.6    499.54434   -582.21695    173.36396    135.63323    136.98224    582.21695    0.9035942 
    8420    3219465.5    501.01027   -444.31596     173.4356    135.56007    136.93478    444.31596   0.90438081 
    8440      3220043    499.71495   -354.61766    173.50724    135.52265    136.94059    354.61766   0.90516742 
    8460    3221045.8    499.69616   -431.98139    173.57887    135.52396    136.92538    431.98139   0.90595403 
    8480    3222150.5    500.49235    -411.0621    173.65051     135.5018    136.93823     411.0621   0.90674064 
    8500    3222683.1    501.50784   -443.44774    173.72215    135.49796    136.90826    443.44774   0.90752725 
    8520    3221609.8    500.58417    -320.1349    173.79379    135.47797    136.82644     320.1349   0.90831386 
    8540    3222265.2    501.81324   -366.32991    173.86543    135.50098    136.77465    366.32991   0.90910047 
    8560    3222825.1    501.40432   -529.04802    173.93706    135.48583    136.75737    529.04802   0.90988708 
    8580    3223260.9    501.61254   -426.38419     174.0087    135.41951    136.78651    426.38419   0.91067369 
    8600      3223555    502.00076   -212.65687    174.08034    135.34871    136.81421    212.65687   0.91146029 
    8620    3225314.7    501.84837   -494.61171    174.15198    135.34507    136.83628    494.61171    0.9122469 
    8640    3226765.9    501.69325   -514.59759    174.22362    135.31287    136.87412    514.59759   0.91303351 
    8660    3227003.1    501.17967   -535.09422    174.29525    135.28956     136.8515    535.09422   0.91382012 
    8680    3227854.4    500.68805   -328.57068    174.36689    135.26334    136.85788    328.57068   0.91460673 
    8700    3227957.4    501.68411   -282.61752    174.43853      135.197    136.87317    282.61752   0.91539334 
    8720    3228756.5    502.14055   -431.39134    174.51017    135.20662    136.84112    431.39134   0.91617995 
    8740    3231000.6    501.13179   -416.21513    174.58181      135.205    136.88167    416.21513   0.91696656 
    8760    3232037.1    501.01058   -553.61951    174.65344    135.18818    136.88645    553.61951   0.91775317 
    8780      3232582    501.12267   -472.53545    174.72508    135.12822    136.91412    472.53545   0.91853978 
    8800    3231632.3    501.17808   -161.26241    174.79672    135.11312    136.83309    161.26241   0.91932639 
    8820    3233177.8    501.70008   -368.35629    174.86836    135.09789    136.85788    368.35629     0.920113 
    8840      3235471    500.41076   -478.61897       174.94    135.09157    136.90527    478.61897    0.9208996 
    8860    3235878.9    499.89701     -483.116    175.01163    135.02175    136.93725      483.116   0.92168621 
    8880    3236584.7     499.0442   -485.84382    175.08327    134.99151    136.94175    485.84382   0.92247282 
    8900    3238445.3    500.94167   -654.57541    175.15491    134.95209    137.00444    654.57541   0.92325943 
    8920      3239948     500.4258   -544.28084    175.22655    134.94836    137.01576    544.28084   0.92404604 
    8940    3238644.5    500.06138   -320.40998    175.29819    134.89843    136.95534    320.40998   0.92483265 
    8960    3238254.2    499.79062   -94.205898    175.36982    134.87692    136.90473    94.205898   0.92561926 
    8980    3239956.6    499.98907    -360.3496    175.44146    134.82797    136.97048     360.3496   0.92640587 
    9000    3242493.4    499.10633   -624.41743     175.5131    134.83664    137.01296    624.41743   0.92719248 
    9020    3243399.1    499.37791   -588.31059    175.58474    134.82891    137.00316    588.31059   0.92797909 
    9040    3243479.6    499.41937    -606.1007    175.65638    134.80939    136.97052     606.1007    0.9287657 
    9060    3244768.4    500.00959   -361.09662    175.72801    134.84834    136.92953    361.09662   0.92955231 
    9080    3245853.6    499.01866   -283.94867    175.79965    134.84946    136.91836    283.94867   0.93033891 
    9100    3247008.7    500.14244   -514.60994    175.87129    134.84427    136.91657    514.60994   0.93112552 
    9120    3247736.2    500.48779   -404.66804    175.94293    134.78964    136.94697    404.66804   0.93191213 
    9140    3248197.2    501.20348   -550.52496    176.01457    134.80759    136.89243    550.52496   0.93269874 
    9160    3248777.3    500.10912    -515.4023     176.0862    134.79628    136.87266     515.4023   0.93348535 
    9180      3249639    499.83041   -408.70779    176.15784    134.80113    136.84837    408.70779   0.93427196 
    9200    3250457.5    499.03023   -714.85721    176.22948    134.84612    136.78153    714.85721   0.93505857 
    9220    3250723.8    499.65539   -493.13501    176.30112    134.83759    136.74581    493.13501   0.93584518 
    9240    3250789.8    498.38889   -457.49149    176.37276    134.78254    136.74887    457.49149   0.93663179 
    9260    3251628.4    499.92886   -612.81579    176.44439    134.75192    136.75968    612.81579    0.9374184 
    9280    3251872.6    498.60932   -509.65159    176.51603      134.694    136.77323    509.65159   0.93820501 
    9300      3252078    500.41337   -362.33164    176.58767    134.66997    136.75078    362.33164   0.93899162 
    9320    3253901.9     499.7762   -457.90019    176.65931    134.71193    136.72939    457.90019   0.93977822 
    9340      3254149     498.5479   -308.46992    176.73095    134.69768     136.6988    308.46992   0.94056483 
    9360    3254568.5      499.534   -325.99715    176.80258    134.66355    136.69566    325.99715   0.94135144 
    9380    3255797.2    499.64099   -463.04872    176.87422     134.6468    136.70889    463.04872   0.94213805 
    9400    3255349.3    500.24057    -474.6102    176.94586    134.61501    136.66701     474.6102   0.94292466 
    9420    3256003.5    498.53341   -752.27566     177.0175    134.59626    136.65819    752.27566   0.94371127 
    9440    3257340.6    498.81501   -821.06097    177.08914    134.62889    136.62589    821.06097   0.94449788 
    9460    3257108.8    498.03865   -422.92552    177.16077    134.56199    136.62881    422.92552   0.94528449 
    9480    3257402.3    498.62184   -301.36302    177.23241    134.59261    136.55482    301.36302    0.9460711 
    9500    3258002.7    500.39284    -436.7031    177.30405    134.57545    136.54222     436.7031   0.94685771 
    9520    3259350.2    499.67536   -234.55614    177.37569    134.59604    136.52264    234.55614   0.94764432 
    9540    3258411.8    499.40454   -331.83284    177.44733    134.56709    136.45758    331.83284   0.94843093 
    9560    3258655.9    499.38708   -302.63656    177.51896    134.58249    136.39712    302.63656   0.94921753 
    9580    3259289.6    498.70385   -279.91716     177.5906    134.56315     136.3882    279.91716   0.95000414 
    9600      3259263    499.93089   -255.46866    177.66224    134.53579    136.35983    255.46866   0.95079075 
    9620    3260529.5    500.46997   -605.49043    177.73388    134.55803     136.3353    605.49043   0.95157736 
    9640    3261429.1    499.53701   -624.67461    177.80552    134.51096    136.36567    624.67461   0.95236397 
    9660    3261947.9    500.21623   -304.99113    177.87715    134.52138    136.32187    304.99113   0.95315058 
    9680    3261001.9    500.86686   -333.30693    177.94879    134.47908    136.27032    333.30693   0.95393719 
    9700    3261259.5    501.76109    -470.2189    178.02043    134.45328    136.25239     470.2189    0.9547238 
    9720    3262894.2    500.55708   -482.63506    178.09207    134.44805    136.27115    482.63506   0.95551041 
    9740    3264442.8    502.05979    -421.9568    178.16371    134.46386    136.26498     421.9568   0.95629702 
    9760    3263183.4      501.752   -182.11015    178.23534    134.41461    136.20755    182.11015   0.95708363 
    9780    3265773.8    502.97076   -405.59016    178.30698    134.42136    136.25406    405.59016   0.95787024 
    9800      3268120     501.1809   -665.05628    178.37862      134.446    136.27222    665.05628   0.95865684 
    9820    3268628.1    502.24863   -326.77615    178.45026    134.43111    136.25378    326.77615   0.95944345 
    9840    3269711.5    500.93509   -451.51748     178.5219    134.40122    136.27454    451.51748   0.96023006 
    9860    3272209.2    500.07177   -556.00675    178.59353    134.41379    136.31119    556.00675   0.96101667 
    9880    3273038.1    498.75428   -256.94128    178.66517    134.39908    136.30597    256.94128   0.96180328 
    9900    3274000.8    501.70641   -340.73973    178.73681    134.34939    136.34182    340.73973   0.96258989 
    9920    3275622.9     500.8179   -415.37647    178.80845    134.31498    136.38964    415.37647    0.9633765 
    9940      3276775     500.0531   -392.90738    178.88009    134.31681    136.38112    392.90738   0.96416311 
    9960    3277171.5    500.12099   -322.28593    178.95172    134.24738    136.41354    322.28593   0.96494972 
    9980      3276650    501.75786   -108.93391    179.02336    134.16519    136.42077    108.93391   0.96573633 
   10000    3278573.6    500.68353   -101.11705      179.095    134.15414     136.4575    101.11705   0.96652294 
   10020    3280664.3    500.83529   -435.36997    179.16664    134.15598    136.48805    435.36997   0.96730955 
   10040      3279688    500.37826   -411.78026    179.23828    134.13103    136.41827    411.78026   0.96809616 
   10060    3280822.9    501.09959   -342.22724    179.30991    134.15659    136.38495    342.22724   0.96888276 
   10080    3282741.7    500.22526   -523.08323    179.38155    134.19119    136.37505    523.08323   0.96966937 
   10100    3282179.7    499.53357   -116.62361    179.45319    134.11017    136.37962    116.62361   0.97045598 
   10120    3282988.4    499.84014   -430.43479    179.52483    134.10728    136.36173    430.43479   0.97124259 
   10140    3284354.6    501.06857   -566.89825    179.59647    134.13382    136.33707    566.89825    0.9720292 
   10160    3285376.5      500.324   -425.56963     179.6681     134.0604    136.39977    425.56963   0.97281581 
   10180    3284744.7    500.15063   -239.57518    179.73974    134.04014    136.33979    239.57518   0.97360242 
   10200    3284168.9    500.32067   -68.725814    179.81138    134.00194    136.30042    68.725814   0.97438903 
   10220    3287199.7     501.5007   -529.43495    179.88302    134.01173    136.36192    529.43495   0.97517564 
   10240    3288187.3    499.94965   -672.61458    179.95466     133.9696    136.39146    672.61458   0.97596225 
   10260    3288458.5     499.2203   -761.20052    180.02629     133.9635    136.35465    761.20052   0.97674886 
   10280    3288335.5    499.56505    -488.7264    180.09793    133.92009    136.33949     488.7264   0.97753547 
   10300      3289869     499.2787   -454.24443    180.16957     133.9007    136.36858    454.24443   0.97832207 
   10320    3290585.7    499.42546   -392.02223    180.24121    133.94085     136.3032    392.02223   0.97910868 
   10340      3291977    498.73312   -488.35681    180.31285    133.98386    136.26291    488.35681   0.97989529 
   10360    3293564.4    499.71166   -429.36502    180.38448    133.96569    136.29296    429.36502    0.9806819 
   10380    3295666.9    499.98648   -260.22189    180.45612     133.9771    136.31421    260.22189   0.98146851 
   10400    3296030.8    499.48811   -336.86145    180.52776    133.98839    136.26367    336.86145   0.98225512 
   10420    3296787.9    499.34528   -359.01095     180.5994    133.95399     136.2759    359.01095   0.98304173 
   10440    3299909.5    499.31843   -543.94851    180.67104    134.00408    136.29988    543.94851   0.98382834 
   10460    3301339.5    498.66224   -550.37059    180.74267    134.00837    136.30054    550.37059   0.98461495 
   10480    3301493.2    500.00011   -438.25842    180.81431    134.01926     136.2418    438.25842   0.98540156 
   10500    3301074.5    499.69761   -364.15106    180.88595    133.98621    136.20416    364.15106   0.98618817 
   10520    3304852.7    499.38561   -698.78718    180.95759    134.05918    136.23188    698.78718   0.98697478 
   10540    3305598.8    500.72653   -666.53009    181.02923    134.03051    136.23785    666.53009   0.98776138 
   10560    3304235.8    500.85088   -169.33126    181.10086    133.94599     136.2137    169.33126   0.98854799 
   10580    3306420.9    500.91483   -252.61236     181.1725    133.99181    136.20329    252.61236    0.9893346 
   10600    3308963.8    502.06832   -398.44059    181.24414      134.052    136.19299    398.44059   0.99012121 
   10620    3309016.8    502.35719   -453.42931    181.31578     134.0318    136.16187    453.42931   0.99090782 
   10640    3308996.3    499.83106   -485.35073    181.38742    133.98029    136.15959    485.35073   0.99169443 
   10660    3309823.9    500.84944   -340.42676    181.45905    134.00732    136.11241    340.42676   0.99248104 
   10680    3311790.6    501.77173   -382.29272    181.53069    133.99339     136.1537    382.29272   0.99326765 
   10700    3314103.7    500.30742   -591.24733    181.60233     134.0213    136.16668    591.24733   0.99405426 
   10720    3312460.5    500.91348    -438.3247    181.67397    134.01929    136.04754     438.3247   0.99484087 
   10740    3313632.1    500.90891   -651.93443    181.74561    133.99505    136.06663    651.93443   0.99562748 
   10760    3314837.3    499.69904   -622.89204    181.81724    134.00445    136.05294    622.89204   0.99641409 
   10780    3314967.8    500.91031   -389.56866    181.88888    133.99612    136.01317    389.56866   0.99720069 
   10800    3314811.7    500.24384   -323.10293    181.96052    133.94016    136.01001    323.10293    0.9979873 
   10820    3315696.8    500.65334   -527.60385    182.03216    133.89208    136.04163    527.60385   0.99877391 
   10840    3315350.9    499.81817    -292.0696     182.1038    133.84113    136.02568     292.0696   0.99956052 
   10860    3315527.9    500.47166   -354.09561    182.17543    133.83526    135.98542    354.09561    1.0003471 
   10880    3316109.1    500.85319   -443.46524    182.24707    133.82152    135.96975    443.46524    1.0011337 
   10900    3316634.4    500.39361   -408.56316    182.31871    133.75785    136.00256    408.56316    1.0019203 
   10920    3317380.2    500.70943   -615.70663    182.39035    133.77659    135.96066    615.70663     1.002707 
   10940    3318366.5    499.43169   -663.62665    182.46199    133.73163     135.9934    663.62665    1.0034936 
   10960    3318542.7    500.52963   -258.03032    182.53362    133.71422    135.96494    258.03032    1.0042802 
   10980    3319807.2    501.13218    -456.1167    182.60526    133.72089     135.9566     456.1167    1.0050668 
   11000    3321142.7    499.29781    -463.3129     182.6769    133.70211    135.97706     463.3129    1.0058534 
   11020    3320178.7    499.36276   -559.38052    182.74854    133.65822    135.92893    559.38052      1.00664 
   11040    3323085.8    498.66458   -611.98077    182.82018    133.65592    135.99697    611.98077    1.0074266 
   11060    3323531.3    500.03963   -542.13582    182.89181    133.65701    135.96082    542.13582    1.0082132 
   11080    3322355.5    499.90466   -139.26603    182.96345    133.60667    135.91069    139.26603    1.0089998 
   11100    3323593.4    499.46215    -276.5438    183.03509    133.58418      135.931     276.5438    1.0097864 
   11120    3324647.3    500.03572   -401.80687    183.10673     133.5907    135.91427    401.80687    1.0105731 
   11140    3325101.8    500.76694   -384.97298    183.17837    133.57743    135.89319    384.97298    1.0113597 
   11160    3325449.5    499.46989   -347.67671       183.25    133.51044    135.92243    347.67671    1.0121463 
   11180    3325963.5      499.603   -382.48009    183.32164    133.49936     135.9016    382.48009    1.0129329 
   11200    3326780.6    499.72593   -458.09186    183.39328    133.46866    135.91314    458.09186    1.0137195 
   11220    3328057.7    500.19711   -738.93232    183.46492    133.45615    135.92497    738.93232    1.0145061 
   11240    3327643.5    499.98062   -559.33706    183.53656    133.39304    135.91928    559.33706    1.0152927 
   11260    3328802.5    498.70986   -565.51009    183.60819    133.36891    135.93816    565.51009    1.0160793 
   11280    3328902.4    499.80107   -410.34844    183.67983    133.38049    135.87741    410.34844    1.0168659 
   11300    3328213.8    498.77563   -386.26249    183.75147    133.34009    135.83749    386.26249    1.0176525 
   11320    3330350.5    498.38278   -545.17322    183.82311    133.34585    135.86586    545.17322    1.0184391 
   11340      3331947    498.19478   -565.21774    183.89475    133.33309    135.89103    565.21774    1.0192258 
   11360    3330137.6    498.09633   -307.30656    183.96638    133.28764    135.81065    307.30656    1.0200124 
   11380    3330629.5    499.93101    -311.6895    184.03802    133.23925    135.82715     311.6895     1.020799 
   11400    3332525.3    500.29611    -309.4635    184.10966      133.245    135.84572     309.4635    1.0215856 
   11420    3332592.5    499.87908   -339.36528     184.1813    133.22584    135.81515    339.36528    1.0223722 
   11440    3333798.2    499.29152   -503.49392    184.25294    133.21654    135.82094    503.49392    1.0231588 
   11460    3336560.5    499.71701   -671.24282    184.32457    133.26245    135.83383    671.24282    1.0239454 
   11480    3336709.6    500.16292   -479.60886    184.39621    133.27961    135.76966    479.60886     1.024732 
   11500    3336531.8    498.95697   -474.47313    184.46785    133.24289    135.74709    474.47313    1.0255186 
   11520    3337489.7    499.12141   -100.55688    184.53949    133.23433    135.74207    100.55688    1.0263052 
   11540    3339668.8    498.86217   -14.188105    184.61113    133.25825    135.75362    14.188105    1.0270918 
   11560    3341434.3    501.28699   -163.36274    184.68276    133.27942    135.75113    163.36274    1.0278785 
   11580    3340499.6    501.08776   -287.52029     184.7544    133.23889    135.70181    287.52029    1.0286651 
   11600    3342009.3    500.77967   -327.47965    184.82604    133.22114     135.7286    327.47965    1.0294517 
   11620    3343875.2    501.48366   -491.82663    184.89768    133.22719    135.74559    491.82663    1.0302383 
   11640    3342708.7     501.6617   -373.35731    184.96932    133.17177    135.70213    373.35731    1.0310249 
   11660    3343593.1    502.59285   -488.75282    185.04095    133.13644    135.72149    488.75282    1.0318115 
   11680      3345990    503.31528   -612.22198    185.11259    133.18966    135.71198    612.22198    1.0325981 
   11700    3346174.2    502.20645   -335.17555    185.18423    133.20253    135.65383    335.17555    1.0333847 
   11720    3345995.6    502.49291   -357.11315    185.25587    133.15954    135.63792    357.11315    1.0341713 
   11740    3346255.6    502.57988   -404.39668    185.32751    133.11838    135.63794    404.39668    1.0349579 
   11760      3346412    501.89291   -306.11408    185.39914    133.06097    135.65038    306.11408    1.0357445 
   11780    3347246.3    502.60324   -478.41774    185.47078    133.06795    135.62467    478.41774    1.0365312 
   11800    3347436.3    501.83272   -316.80956    185.54242    133.02528     135.6235    316.80956    1.0373178 
   11820    3347610.3    502.72888    -228.5851    185.61406    133.00795    135.59586     228.5851    1.0381044 
   11840    3349011.6    501.67241   -427.05767     185.6857    133.02117    135.58681    427.05767     1.038891 
   11860    3350926.9    500.77246   -540.32626    185.75733    133.02737    135.60571    540.32626    1.0396776 
   11880    3349921.4    501.14009   -155.28066    185.82897     132.9392    135.60264    155.28066    1.0404642 
   11900      3349452    500.88586   -315.84673    185.90061    132.88241    135.58931    315.84673    1.0412508 
   11920    3350219.9    499.68642   -320.66053    185.97225    132.81165    135.64038    320.66053    1.0420374 
   11940    3349978.6    500.75979   -474.08467    186.04389    132.69901    135.69347    474.08467     1.042824 
   11960    3350583.4      501.932   -537.18791    186.11552     132.7054    135.65919    537.18791    1.0436106 
   11980      3351439    500.63147   -297.42492    186.18716    132.72468    135.62192    297.42492    1.0443972 
   12000    3350624.3    500.23166    110.68548     186.2588    132.70208    135.55989   -110.68548    1.0451839 
   12020      3353696     500.3794   -185.34085    186.33044    132.72235    135.61128    185.34085    1.0459705 
   12040    3355832.8    501.54199   -589.10198    186.40208    132.76547    135.60148    589.10198    1.0467571 
   12060    3357094.7    500.41625   -603.41529    186.47371    132.73304    135.63349    603.41529    1.0475437 
   12080    3358451.2    500.66507   -594.73234    186.54535    132.73859    135.63052    594.73234    1.0483303 
   12100    3355714.5    500.43694   -215.64167    186.61699    132.63891    135.56977    215.64167    1.0491169 
   12120    3356663.7    500.57232   -161.29233    186.68863    132.63564    135.55943    161.29233    1.0499035 
   12140    3358447.8    499.67793   -176.51538    186.76027    132.62446    135.59088    176.51538    1.0506901 
   12160    3360086.6    499.53528    -187.4374     186.8319    132.66144    135.56723     187.4374    1.0514767 
   12180    3362595.5    500.51211   -381.63415    186.90354    132.65142     135.6267    381.63415    1.0522633 
   12200    3365602.2    499.74293   -514.40166    186.97518    132.66108    135.68608    514.40166    1.0530499 
   12220    3364452.2    500.21411   -306.03165    187.04682    132.59193    135.65848    306.03165    1.0538366 
   12240    3364893.5    499.93486   -283.77564    187.11846    132.58783    135.62852    283.77564    1.0546232 
   12260    3366163.7    500.07624   -400.31724    187.19009    132.54675    135.66983    400.31724    1.0554098 
   12280    3365880.6    499.94042   -378.14926    187.26173    132.50315    135.65115    378.14926    1.0561964 
   12300    3366793.4    499.61017   -346.79652    187.33337      132.529    135.60959    346.79652     1.056983 
   12320    3367478.9     499.3723    -432.4169    187.40501    132.53168    135.58261     432.4169    1.0577696 
   12340    3367867.6    499.38068   -404.48101    187.47665    132.50214    135.57666    404.48101    1.0585562 
   12360    3368149.5    500.54491   -536.38155    187.54828    132.49844    135.54001    536.38155    1.0593428 
   12380    3368413.3    500.92927   -501.39734    187.61992    132.47137    135.52655    501.39734    1.0601294 
   12400    3368111.8    499.90176    -226.0853    187.69156    132.44617    135.48847     226.0853     1.060916 
   12420    3369030.7    500.20277   -161.15474     187.7632    132.39628    135.52478    161.15474    1.0617026 
   12440    3370722.3    501.12088    -519.3601    187.83484    132.41811    135.51877     519.3601    1.0624893 
   12460      3370541    500.10432   -256.90281    187.90647    132.44002     135.4374    256.90281    1.0632759 
   12480    3369601.5    500.12856   -282.50254    187.97811    132.37629    135.41322    282.50254    1.0640625 
   12500    3369855.7    500.30335   -433.42271    188.04975    132.38951    135.35833    433.42271    1.0648491 
   12520    3371758.5    499.85724   -413.12782    188.12139    132.37454    135.39849    413.12782    1.0656357 
   12540    3373656.1    499.80677   -548.24384    188.19303    132.36995    135.42782    548.24384    1.0664223 
   12560    3373932.9    499.30389   -397.99071    188.26466    132.31569    135.44291    397.99071    1.0672089 
   12580    3374864.7    500.23713   -272.70107     188.3363     132.3632    135.38017    272.70107    1.0679955 
   12600    3376530.4    500.71169   -401.65614    188.40794    132.38173    135.37655    401.65614    1.0687821 
   12620    3379300.7    499.47141   -539.70441    188.47958    132.38056    135.43731    539.70441    1.0695687 
   12640    3379480.9    498.90644   -304.89004    188.55122    132.36147    135.41261    304.89004    1.0703553 
   12660    3378824.2     500.0198   -81.939611    188.62285    132.31805    135.37928    81.939611     1.071142 
   12680    3379827.3    499.48926   -381.32806    188.69449    132.32265    135.36335    381.32806    1.0719286 
   12700    3382601.3     499.3742   -494.65834    188.76613    132.33796    135.40737    494.65834    1.0727152 
   12720    3384406.5    499.21083    -646.6692    188.83777    132.37154    135.39388     646.6692    1.0735018 
   12740    3384367.2    499.69857    -426.7016    188.90941    132.38465    135.32756     426.7016    1.0742884 
   12760    3384219.9    500.25054   -378.74412    188.98104     132.3463    135.30957    378.74412     1.075075 
   12780    3387106.4    500.16277   -331.82037    189.05268    132.35967       135.36    331.82037    1.0758616 
   12800    3389242.3    499.59401   -556.25347    189.12432    132.35367    135.40018    556.25347    1.0766482 
   12820    3387723.7    500.73221   -391.90574    189.19596    132.24981    135.39451    391.90574    1.0774348 
   12840    3387357.6    499.86571   -336.70752     189.2676     132.2268    135.35219    336.70752    1.0782214 
   12860    3389695.3    501.02171   -409.71687    189.33923    132.22376    135.39746    409.71687     1.079008 
   12880    3392470.8    500.58009    -311.0851    189.41087    132.23552    135.44503     311.0851    1.0797947 
   12900    3391975.9    502.52774   -303.95245    189.48251    132.22055     135.3894    303.95245    1.0805813 
   12920    3391722.3    501.55175   -494.48285    189.55415    132.17738    135.37232    494.48285    1.0813679 
   12940    3393202.8    501.58064   -371.14883    189.62579     132.2047    135.35227    371.14883    1.0821545 
   12960    3393201.5    502.38299   -344.30459    189.69742    132.19959    135.30633    344.30459    1.0829411 
   12980    3393251.9    502.41306   -438.43206    189.76906    132.18213    135.27512    438.43206    1.0837277 
   13000    3394180.3    501.05952   -380.55864     189.8407    132.21492    135.22753    380.55864    1.0845143 
   13020    3398169.2    501.38687   -557.96662    189.91234    132.23893    135.31081    557.96662    1.0853009 
[...]
   36760    4118277.7    500.40183     -257.969    274.94664    120.14668    124.66813      257.969     2.019006 
   36780    4120290.9    500.41378   -481.45337    275.01828    120.14329     124.7001    481.45337    2.0197926 
   36800    4118627.1    500.64688   -213.87732    275.08992     120.0832    124.67964    213.87732    2.0205792 
   36820    4118180.3    500.86119   -47.916386    275.16156    120.04522     124.6731    47.916386    2.0213658 
   36840    4117891.2    501.08632   -232.44651     275.2332     120.0076    124.67096    232.44651    2.0221524 
   36860      4118663    500.32977   -207.12126    275.30483    120.00109    124.66864    207.12126    2.0229391 
   36880    4120751.4    499.40627   -469.31737    275.37647    120.03306    124.66619    469.31737    2.0237257 
   36900    4121171.8    500.10159   -420.67943    275.44811    120.03822    124.64113    420.67943    2.0245123 
   36920    4118883.5    499.98296   -125.84901    275.51975    119.98438    124.59542    125.84901    2.0252989 
   36940    4117759.7    499.88283    17.246768    275.59139    119.93419    124.58115   -17.246768    2.0260855 
   36960    4118891.6    500.72073   -15.159105    275.66302    119.94296    124.57391    15.159105    2.0268721 
   36980    4119872.6    498.98809   -271.27834    275.73466    120.01005    124.50157    271.27834    2.0276587 
   37000    4123494.7    499.15026   -487.41388     275.8063    120.01637     124.5721    487.41388    2.0284453 
   37020    4121533.7    500.19676   -311.38829    275.87794     119.9713    124.52729    311.38829    2.0292319 
   37040    4121310.7    500.13852   -186.55076    275.94958      119.955    124.50513    186.55076    2.0300185 
   37060    4121073.5    499.94782   -295.82894    276.02121    119.93622    124.48515    295.82894    2.0308051 
   37080    4120463.6    499.50162    -102.7366    276.09285    119.95683    124.41305     102.7366    2.0315918 
   37100    4122245.9    501.05177   -273.63166    276.16449    119.97154    124.41932    273.63166    2.0323784 
   37120    4122651.1    500.20625   -262.43181    276.23613    119.93712    124.43498    262.43181     2.033165 
   37140    4123609.7    500.02977    -164.1692    276.30777    119.93371    124.43519     164.1692    2.0339516 
   37160    4123590.4    501.53903   -104.06114     276.3794    119.93927    124.39658    104.06114    2.0347382 
   37180    4124959.1     501.3702   -179.54257    276.45104    119.96543     124.3785    179.54257    2.0355248 
   37200    4126240.5    500.72309   -255.53226    276.52268    119.96268    124.38776    255.53226    2.0363114 
   37220    4126347.4    500.73467   -380.92524    276.59432    119.93496     124.3875    380.92524     2.037098 
   37240    4126345.3    500.07461   -239.08405    276.66596    120.00241    124.28533    239.08405    2.0378846 
   37260    4127359.8    500.15974   -221.02403    276.73759    120.03011    124.25502    221.02403    2.0386712 
   37280    4127115.8    499.92858   -103.49283    276.80923    120.01703    124.22906    103.49283    2.0394579 
   37300    4128427.7    499.38199   -263.23109    276.88087    120.03652    124.21623    263.23109    2.0402445 
   37320    4128470.2    500.47438   -227.76636    276.95251    120.01914    124.20336    227.76636    2.0410311 
   37340    4129950.6    500.02816   -164.11834    277.02415    120.03277    124.20167    164.11834    2.0418177 
   37360    4129794.8    499.76863   -280.52348    277.09578    119.99467    124.20429    280.52348    2.0426043 
   37380    4129644.4    500.51676   -410.47526    277.16742    119.95043    124.21347    410.47526    2.0433909 
   37400    4129685.6    499.07571   -260.11684    277.23906    119.89274    124.24236    260.11684    2.0441775 
   37420    4130322.1    499.27722    31.853131     277.3107    119.87311    124.24974   -31.853131    2.0449641 
   37440    4130645.7    499.32062   -62.313533    277.38234    119.82696    124.27524    62.313533    2.0457507 
   37460    4131456.6    499.83231   -158.73559    277.45397    119.82917    124.26524    158.73559    2.0465373 
   37480    4134698.4    499.46545   -308.72083    277.52561    119.86016     124.2985    308.72083    2.0473239 
   37500    4133475.3    500.79344   -250.92231    277.59725    119.79503    124.29721    250.92231    2.0481106 
   37520    4132299.8    499.62255   -49.372167    277.66889    119.76748    124.25838    49.372167    2.0488972 
   37540    4133743.6    499.18264   -214.60526    277.74053    119.77141    124.26566    214.60526    2.0496838 
   37560    4138889.4    500.59736    -457.1442    277.81216     119.7936    124.36522     457.1442    2.0504704 
   37580    4138983.6    499.73676   -394.85272     277.8838    119.75609    124.37493    394.85272     2.051257 
   37600    4136974.4    499.20621    88.570119    277.95544    119.69997    124.34079   -88.570119    2.0520436 
   37620      4138152    499.41888   -41.794056    278.02708    119.69176    124.35266    41.794056    2.0528302 
   37640    4139974.3    499.17477   -374.27642    278.09872    119.73564    124.32979    374.27642    2.0536168 
   37660    4139911.8    500.72365    -376.5649    278.17035    119.70308    124.32971     376.5649    2.0544034 
   37680    4140162.6    500.88782   -207.50019    278.24199    119.71528    124.29256    207.50019      2.05519 
   37700    4143468.6    500.33236   -156.61501    278.31363    119.68968    124.38639    156.61501    2.0559766 
   37720    4143686.5    499.30309   -246.64797    278.38527    119.69475    124.35565    246.64797    2.0567633 
   37740    4143130.7    499.74336   -171.60722    278.45691    119.68867     124.3133    171.60722    2.0575499 
   37760    4143854.7    499.64667   -143.96163    278.52854    119.62582    124.36835    143.96163    2.0583365 
   37780    4147069.2     500.6989    -170.6507    278.60018    119.65096    124.40668     170.6507    2.0591231 
   37800    4146384.2    500.22832    -156.0586    278.67182    119.63393    124.37186     156.0586    2.0599097 
   37820    4149460.7    500.26148   -271.91262    278.74346    119.65739    124.40775    271.91262    2.0606963 
   37840    4151923.9    500.06001   -434.33796     278.8151    119.69317    124.41241    434.33796    2.0614829 
   37860      4150238    499.35037   -403.67363    278.88673    119.65319     124.3715    403.67363    2.0622695 
   37880    4151868.4    500.78101   -267.95496    278.95837    119.60152    124.44214    267.95496    2.0630561 
   37900    4153090.3    499.77307   -194.83549    279.03001    119.58712     124.4618    194.83549    2.0638427 
   37920    4153906.8    499.66643   -129.47143    279.10165    119.56001    124.48253    129.47143    2.0646293 
   37940    4152863.5    501.80508     35.25229    279.17329    119.53587    124.44446    -35.25229     2.065416 
   37960    4153145.1    501.60342    69.648859    279.24492    119.54149    124.41512   -69.648859    2.0662026 
   37980    4156927.2    500.80991   -86.566762    279.31656    119.65393    124.37949    86.566762    2.0669892 
   38000    4157939.6    500.38879   -275.65691     279.3882    119.64641    124.38569    275.65691    2.0677758 
   38020    4156363.6    500.54846   -209.04934    279.45984     119.6305    124.32321    209.04934    2.0685624 
   38040    4158993.1    500.78175   -280.96902    279.53148    119.64527    124.35462    280.96902     2.069349 
   38060    4160255.5    499.69452   -301.04797    279.60311    119.60372     124.4037    301.04797    2.0701356 
   38080    4160042.4    500.54872   -239.89099    279.67475    119.56958    124.40098    239.89099    2.0709222 
   38100      4160835    499.75347    -315.9675    279.74639    119.55916    124.40365     315.9675    2.0717088 
   38120    4158907.8    500.16749    -71.61256    279.81803    119.55845    124.31494     71.61256    2.0724954 
   38140    4159334.7     499.7225   -139.69503    279.88967    119.52092    124.33491    139.69503     2.073282 
   38160      4160685    499.18367   -272.67653     279.9613    119.49908    124.36618    272.67653    2.0740687 
   38180    4161086.5    500.36668    -243.8759    280.03294    119.51085    124.33411     243.8759    2.0748553 
   38200    4159327.4    499.76007   -44.735405    280.10458    119.41413     124.3504    44.735405    2.0756419 
   38220    4159353.1    499.28277   -113.53235    280.17622    119.38526    124.34944    113.53235    2.0764285 
   38240    4159314.6    498.61298   -247.22162    280.24786    119.37631    124.32582    247.22162    2.0772151 
   38260      4159673    498.87425   -248.58411    280.31949    119.38109    124.29978    248.58411    2.0780017 
   38280    4160362.6     498.6908   -489.05692    280.39113    119.38988    124.27948    489.05692    2.0787883 
   38300    4161235.2    500.05905   -503.06073    280.46277    119.34534    124.32017    503.06073    2.0795749 
   38320    4159702.5    499.66459   -239.69491    280.53441    119.31745    124.27168    239.69491    2.0803615 
   38340      4159746    500.45221    44.735124    280.60605    119.29554    124.26407   -44.735124    2.0811481 
   38360    4160221.8    498.46465   -165.91393    280.67768    119.27882    124.26398    165.91393    2.0819347 
   38380    4159475.1    500.36135   -261.51214    280.74932    119.26181     124.2277    261.51214    2.0827214 
   38400    4160396.5    500.40464   -291.40634    280.82096    119.25802    124.22746    291.40634     2.083508 
   38420    4159661.7    500.20769   -210.41321     280.8926    119.18349     124.2515    210.41321    2.0842946 
   38440    4158585.5     501.2165   -188.83875    280.96424    119.13951    124.23352    188.83875    2.0850812 
   38460    4159032.9    499.99501    -153.4297    281.03587    119.13587    124.21901     153.4297    2.0858678 
   38480      4158690     500.7661   -60.621102    281.10751    119.10292    124.21147    60.621102    2.0866544 
   38500    4160128.2    500.43012   -240.79401    281.17915    119.15311    124.17044    240.79401     2.087441 
   38520    4160962.1    500.42526   -322.62748    281.25079    119.16213    124.15429    322.62748    2.0882276 
   38540    4160303.2    502.21894   -212.67509    281.32243    119.14005    124.12603    212.67509    2.0890142 
   38560    4160893.6    501.50416   -265.18467    281.39406    119.15046     124.1012    265.18467    2.0898008 
   38580    4160791.8    502.09209    -249.1417     281.4657    119.16054    124.05608     249.1417    2.0905874 
   38600      4160572      501.311   -226.59808    281.53734    119.14431    124.03486    226.59808    2.0913741 
   38620    4159546.3    502.91996   -154.31374    281.60898    119.10032    124.01851    154.31374    2.0921607 
   38640    4159614.7    501.17686   -197.43479    281.68062    119.05538    124.03582    197.43479    2.0929473 
   38660    4160703.1     501.1856   -119.06183    281.75225    119.01079     124.0832    119.06183    2.0937339 
   38680    4163071.1    501.00437   -163.12348    281.82389    119.04134    124.09041    163.12348    2.0945205 
   38700    4164304.7     500.0887   -259.34963    281.89553    119.03678    124.10038    259.34963    2.0953071 
   38720    4163951.4    498.91908   -326.96848    281.96717     118.9961    124.10074    326.96848    2.0960937 
   38740    4166024.9    500.30397   -385.23482    282.03881    118.98642     124.1411    385.23482    2.0968803 
   38760    4165737.7    500.20319   -177.38967    282.11044    118.99569    124.09136    177.38967    2.0976669 
   38780    4165077.5     500.7137   -83.324233    282.18208    119.02001    124.01484    83.324233    2.0984535 
   38800    4166614.5    500.25599   -216.26023    282.25372    119.02888    124.01988    216.26023    2.0992401 
   38820    4169813.9    501.08231   -281.92779    282.32536    119.05098    124.06058    281.92779    2.1000268 
   38840    4169341.3    499.84496   -151.09111      282.397     119.0763    123.98868    151.09111    2.1008134 
   38860    4168424.3     500.0958   -74.921338    282.46863    119.03894    123.96887    74.921338       2.1016 
   38880    4170841.4    501.48818   -103.27629    282.54027    119.05058    123.99718    103.27629    2.1023866 
   38900    4172405.5    500.91954   -198.07437    282.61191    119.06594    123.99624    198.07437    2.1031732 
   38920      4171635    499.98795   -267.22024    282.68355     119.0384    123.97059    267.22024    2.1039598 
   38940    4172718.9    498.71416   -327.97733    282.75519    119.00627    124.00486    327.97733    2.1047464 
   38960    4174657.9    500.79831   -319.89687    282.82682    119.01845    124.01836    319.89687     2.105533 
   38980    4174563.9    500.36737   -209.38857    282.89846     119.0453    123.95621    209.38857    2.1063196 
   39000    4173777.4    498.64483   -83.296847     282.9701    119.06274    123.88332    83.296847    2.1071062 
   39020    4176817.2    498.99284   -213.27823    283.04174    119.10535    123.89783    213.27823    2.1078928 
   39040    4178117.4    500.23741   -264.86167    283.11338    119.12218    123.88754    264.86167    2.1086795 
   39060    4176980.7      500.562   -133.09966    283.18501    119.11491    123.83006    133.09966    2.1094661 
   39080    4178663.9    500.29235   -87.557363    283.25665    119.11143    123.85225    87.557363    2.1102527 
   39100    4179046.8    499.54293   -73.625554    283.32829     119.1224    123.82087    73.625554    2.1110393 
   39120    4180288.1    499.83931   -249.76871    283.39993    119.14083    123.80719    249.76871    2.1118259 
   39140    4180952.7    500.15714   -284.28534    283.47157    119.15022    123.78582    284.28534    2.1126125 
   39160      4181573     498.6833   -210.73272     283.5432    119.16708    123.75539    210.73272    2.1133991 
   39180    4180689.7    499.09112   -184.44969    283.61484    119.16976    123.69522    184.44969    2.1141857 
   39200    4180457.3    499.36025   -54.519263    283.68648    119.16565    123.66137    54.519263    2.1149723 
   39220    4181744.5    498.66239   -112.75295    283.75812    119.13138     123.7038    112.75295    2.1157589 
   39240    4182735.8    498.06552   -182.74249    283.82976    119.10204    123.73237    182.74249    2.1165456 
   39260    4182660.9    500.05288   -100.12189    283.90139    119.12652    123.67351    100.12189    2.1173322 
   39280      4183122    499.21077   -197.32539    283.97303    119.13622    123.64587    197.32539    2.1181188 
   39300    4182470.1    499.73465   -110.34404    284.04467    119.12453    123.60755    110.34404    2.1189054 
   39320    4181588.3    500.29783   -134.32641    284.11631    119.14117    123.53308    134.32641     2.119692 
   39340    4180773.3    499.76884   -162.31215    284.18795     119.1224    123.49732    162.31215    2.1204786 
   39360    4179269.9    501.14463    -238.5385    284.25958    119.08766    123.45781     238.5385    2.1212652 
   39380    4180097.3    501.26239   -157.02275    284.33122    119.12616    123.41123    157.02275    2.1220518 
   39400    4180987.3     501.4437   -248.72169    284.40286    119.09965    123.43389    248.72169    2.1228384 
   39420    4182582.5    501.29389   -344.38352     284.4745     119.0742    123.47627    344.38352     2.123625 
   39440    4182499.5    499.87506   -212.75975    284.54614     119.0452     123.4728    212.75975    2.1244116 
   39460    4181873.2    501.18954    14.901306    284.61777    119.06443    123.40331   -14.901306    2.1251983 
   39480    4181766.7     501.0964    69.657605    284.68941    119.01288    123.42255   -69.657605    2.1259849 
   39500    4182818.7    502.67205   -129.27661    284.76105    119.01441    123.42095    129.27661    2.1267715 
   39520    4183802.6    501.18679   -238.56156    284.83269    119.01553    123.41778    238.56156    2.1275581 
   39540    4185797.4    500.09308   -369.79929    284.90433    118.97189    123.49085    369.79929    2.1283447 
   39560    4186561.2    499.22186   -208.24858    284.97596    118.96377    123.49077    208.24858    2.1291313 
   39580    4188041.6    500.84473   -194.90624     285.0476    118.93201    123.53637    194.90624    2.1299179 
   39600    4191400.9    499.56679   -521.44682    285.11924     118.9316    123.60483    521.44682    2.1307045 
   39620    4191987.2    501.30345   -431.54366    285.19088     118.8974    123.62661    431.54366    2.1314911 
   39640    4192204.6    500.11155   -108.64245    285.26252    118.86398    123.63672    108.64245    2.1322777 
   39660    4193096.1    500.90379   -12.243586    285.33415    118.83259    123.66463    12.243586    2.1330643 
   39680    4195261.8    498.87903   -240.70158    285.40579    118.85219    123.67704    240.70158     2.133851 
   39700      4197661    499.40459   -554.93011    285.47743    118.78777    123.78381    554.93011    2.1346376 
   39720    4198449.6    498.80468   -500.92784    285.54907    118.75229    123.81298    500.92784    2.1354242 
   39740    4197690.1    499.60609   -191.74006    285.62071    118.71598    123.79739    191.74006    2.1362108 
   39760    4200250.8    499.72955   -126.98134    285.69234    118.72808    123.82924    126.98134    2.1369974 
   39780    4201940.1    499.62237   -219.07008    285.76398    118.72897    123.84705    219.07008     2.137784 
   39800    4203401.5    500.09957   -205.08076    285.83562    118.76039    123.82631    205.08076    2.1385706 
   39820    4205097.3    499.60535   -290.10419    285.90726    118.78985    123.81451    290.10419    2.1393572 
   39840    4206341.9    500.03011   -187.99159     285.9789    118.76671    123.84425    187.99159    2.1401438 
   39860    4207512.9    500.13816   -264.89848    286.05053    118.75179    123.86327    264.89848    2.1409304 
   39880    4205291.9    500.06383   -216.25594    286.12217    118.64197    123.88145    216.25594     2.141717 
   39900    4204649.9    500.72978   -95.470806    286.19381    118.62459    123.84968    95.470806    2.1425037 
   39920      4206650    499.38296   -203.25422    286.26545    118.66448    123.83594    203.25422    2.1432903 
   39940      4208770    500.97575   -243.46934    286.33709    118.68922    123.84154    243.46934    2.1440769 
   39960    4206720.4    500.98879   -238.68952    286.40872    118.62808    123.81404    238.68952    2.1448635 
   39980    4205864.3    501.44024   -148.58213    286.48036    118.59583    123.79155    148.58213    2.1456501 
   40000      4206390    501.72168   -132.73123      286.552    118.58848    123.78374    132.73123    2.1464367 
Loop time of 6131.95 on 64 procs for 40000 steps with 212040 atoms

Performance: 0.564 ns/day, 42.583 hours/ns, 6.523 timesteps/s
99.9% CPU use with 64 MPI tasks x 1 OpenMP threads

MPI task timing breakdown:
Section |  min time  |  avg time  |  max time  |%varavg| %total
---------------------------------------------------------------
Pair    | 1078.2     | 1738.6     | 2365.3     | 795.4 | 28.35
Bond    | 114.81     | 161.97     | 197.44     | 153.5 |  2.64
Kspace  | 222.36     | 884.98     | 1584.8     |1179.9 | 14.43
Neigh   | 3191.9     | 3204.9     | 3213.3     |  10.1 | 52.27
Comm    | 91.608     | 100.39     | 113.8      |  58.8 |  1.64
Output  | 2.136      | 2.1679     | 2.19       |   0.7 |  0.04
Modify  | 32.657     | 34.604     | 37.202     |  18.0 |  0.56
Other   |            | 4.3        |            |       |  0.07

Nlocal:        3313.12 ave        4603 max        1138 min
Histogram: 2 1 1 4 6 15 15 4 7 9
Nghost:        16773.8 ave       21548 max       12269 min
Histogram: 2 2 10 14 14 5 1 3 6 7
Neighs:    1.62982e+06 ave 2.64795e+06 max      410127 min
Histogram: 2 1 6 5 19 10 6 3 4 8

Total # of neighbors = 1.0430844e+08
Ave neighs/atom = 491.92811
Ave special neighs/atom = 5.9990568
Neighbor list builds = 40000
Dangerous builds not checked
Total wall time: 1:42:16
