LAMMPS (29 Oct 2020)
OMP_NUM_THREADS environment is not set. Defaulting to 1 thread. (../comm.cpp:94)
  using 1 OpenMP thread(s) per MPI task
####################################################
#    This program is free software: you can redistribute it and/or modify
#    it under the terms of the GNU General Public License as published by
#    the Free Software Foundation, either version 3 of the License, or
#    (at your option) any later version.
#
#    This program is distributed in the hope that it will be useful,
#    but WITHOUT ANY WARRANTY; without even the implied warranty of
#    MERCHANTABILITY or FITNESS FOR A PARTICULAR PURPOSE.  See the
#    GNU General Public License for more details.


units		real        ## defines the units style used herein. More information: https://docs.lammps.org/units.html
atom_style	full        ## defines the atom style used herein. More information: https://docs.lammps.org/atom_style.html

# Styles
pair_style      lj/cut/coul/long 15.0 10.0      ## sets the formula(s) LAMMPS uses to compute pairwise interactions; here, lennard-jones (LJ) with long-range Coulomb interaction. More: https://docs.lammps.org/pair_lj_cut_coul.html
pair_modify     shift no                        ## the shift keyword determines whether a Lennard-Jones potential is shifted at its cutoff to 0.0. More: https://docs.lammps.org/pair_modify.html
kspace_style    pppm 1.0e-4                     ## defines a long-range solver for LAMMPS to compute long-range Coulombic interactions. Note: requires use of a matching pair style, i.e. PPPM with coul/long. More: https://docs.lammps.org/kspace_style.html
bond_style      harmonic                        ## defined based off the forcefield used to construct the system; models the atoms' interactions
angle_style     harmonic
dihedral_style  opls
improper_style  cvff
special_bonds   lj 0 0 1 coul 0 0 1

read_data       300K_TRP.lmps      ## input lammps datafile, equilibriated until structure nears experimental properties
Reading data file ...
  orthogonal box = (229.50089 229.50089 229.50089) to (370.49911 370.49911 370.49911)
  4 by 4 by 4 MPI processor grid
  reading atoms ...
  212040 atoms
  reading velocities ...
  212040 velocities
  scanning bonds ...
  2 = max bonds/atom
  scanning angles ...
  6 = max angles/atom
  scanning dihedrals ...
  15 = max dihedrals/atom
  scanning impropers ...
  2 = max impropers/atom
  reading bonds ...
  236020 bonds
  reading angles ...
  399920 angles
  reading dihedrals ...
  615800 dihedrals
  reading impropers ...
  127960 impropers
Finding 1-2 1-3 1-4 neighbors ...
  special bond factors lj:    0.0      0.0      1.0     
  special bond factors coul:  0.0      0.0      1.0     
     4 = max # of 1-2 neighbors
    10 = max # of 1-3 neighbors
    14 = max # of special neighbors
  special bonds CPU = 1.718 seconds
  read_data CPU = 3.764 seconds

dielectric      1.0
neighbor    	1.0 bin
neigh_modify	delay 0 every 1 check no        ## this is to make sure that the neighbor list is updated every timestep, and the atoms don't get lost as the system is being deformed ##

timestep	    1.0                             ## unit = fs, per "real" unit style
run_style       verlet                          ## defines algorithm used for simulation computation; verlet integration is a numerical method used to integrate Newton's equations of motion.

variable stress equal press*-1                         ## computes stress as the negative of press values
variable engStrain equal (lx-91.07191)/91.07191      ## computes engineering strain; lx_0 must be found and inputted manually (for now)

thermo		    20                                                               ## output log data (headers in thermo_style), recorded at every timestep in numList.txt
thermo_style    custom step vol temp press lx ly lz v_stress v_engStrain         ## data headers of output log file. More: https://docs.lammps.org/thermo_style.html

################# Deformation ##################

fix 1 all npt temp 300 300 100 y 1 1 100.0 z 1 1 100.0      ## stress normal to the x direction can vary; external pressure (y and z) = 1atm ##

fix 2 all deform 1 x scale 2.0 remap x                      ## sets a uniaxial (x-direction) deformation in motion, scaling a set amount (here, 4.0x) the initial length


################# Dumping ##################

reset_timestep 0

dump dump2 all custom 2000 sim.lammpstrj id mol type q xs ys zs ix iy iz

restart 4000 PMP.restart

run 		40000              ## this depends on the overall strain rate, where strain rate = deformScale / runTimeSteps (consider units!)
PPPM initialization ...
WARNING: System is not charge neutral, net charge = 0.034008 (../kspace.cpp:313)
  using 12-bit tables for long-range coulomb (../kspace.cpp:328)
  G vector (1/distance) = 0.19909148
  grid = 36 36 36
  stencil order = 5
  estimated absolute RMS force accuracy = 0.041605583
  estimated relative force accuracy = 0.00012529398
  using double precision FFTW3
  3d grid and FFT values/proc = 2744 900
Neighbor list info ...
  update every 1 steps, delay 0 steps, check no
  max neighbors/atom: 2000, page size: 100000
  master list distance cutoff = 16
  ghost atom cutoff = 16
  binsize = 8, bins = 18 18 18
  1 neighbor lists, perpetual/occasional/extra = 1 0 0
  (1) pair lj/cut/coul/long, perpetual
      attributes: half, newton on
      pair build: half/bin/newton
      stencil: half/bin/3d/newton
      bin: standard
Per MPI rank memory allocation (min/avg/max) = 38.91 | 39.47 | 40.11 Mbytes
Step Volume Temp Press Lx Ly Lz v_stress v_engStrain 
       0    2803115.4    300.00827    14569.181    140.99823    140.99823    140.99823   -14569.181   0.54820767 
      20    2824628.8    306.80217    2427.2664    141.06873    141.53636    141.46943   -2427.2664   0.54898177 
      40    2847182.6    305.05832    1193.9172    141.13923     142.0759    141.98654   -1193.9172   0.54975588 
      60    2842761.3    305.37882    91.245593    141.20973    141.92664    141.84429   -91.245593   0.55052998 
      80    2836127.4    305.20569    25.462793    141.28023    141.72037    141.64854   -25.462793   0.55130408 
     100    2837028.3    305.83362   -20.779385    141.35073    141.73391    141.60933    20.779385   0.55207819 
     120    2836642.9    304.04702   -687.97648    141.42122    141.64334       141.61    687.97648   0.55285229 
     140    2831008.3    303.32608   -812.75681    141.49172    141.47955    141.42183    812.75681    0.5536264 
     160    2826799.6    302.91941   -958.84216    141.56222    141.34112    141.27949    958.84216    0.5544005 
     180    2830130.2    303.70856    -1149.901    141.63272    141.39564    141.32103     1149.901    0.5551746 
     200    2825785.8    303.57335   -521.00904    141.70322    141.25523    141.17408    521.00904   0.55594871 
     220    2826132.2    302.66462   -493.65696    141.77372    141.23664    141.13975    493.65696   0.55672281 
     240    2826384.5     302.9201    133.89096    141.84422    141.20087    141.11794   -133.89096   0.55749692 
     260    2821479.7    302.51242    605.67566    141.91472    141.02983    140.97384   -605.67566   0.55827102 
     280    2823867.4     301.6757    581.56022    141.98522    141.05517    140.99774   -581.56022   0.55904512 
     300      2824731    301.34858   -461.02467    142.05572    141.02728    140.99875    461.02467   0.55981923 
     320    2823606.1    301.99778    522.15381    142.12622    140.93273    140.96719   -522.15381   0.56059333 
     340    2823077.1    301.62361   -641.64236    142.19671    140.89108    140.91255    641.64236   0.56136743 
     360      2823252    300.82305   -324.29424    142.26721    140.86234    140.88019    324.29424   0.56214154 
     380    2826953.5    301.39573   -78.698164    142.33771    140.88756    140.96979    78.698164   0.56291564 
     400    2826853.6    300.44914   -381.13322    142.40821    140.86385    140.91873    381.13322   0.56368975 
     420      2827017    300.56957   -211.82965    142.47871    140.82653    140.89448    211.82965   0.56446385 
     440    2827112.8    300.10915    231.33732    142.54921    140.80824    140.84786   -231.33732   0.56523795 
     460    2829504.5    300.18266   -243.17511    142.61971    140.80276    140.90282    243.17511   0.56601206 
     480    2828413.4    299.76112   -169.70005    142.69021    140.71757    140.86412    169.70005   0.56678616 
     500    2828929.4    299.96126    10.318864    142.76071    140.68004    140.85782   -10.318864   0.56756027 
     520    2830183.3    299.18536    2.3150644    142.83121    140.69579    140.83492   -2.3150644   0.56833437 
     540    2834429.4    299.36946   -453.29944    142.90171    140.76415    140.90817    453.29944   0.56910847 
     560    2835424.6     299.4457   -551.66069     142.9722    140.75821    140.89408    551.66069   0.56988258 
     580    2834552.1    299.85975    -288.6011     143.0427    140.68939    140.85017     288.6011   0.57065668 
     600    2836687.8    299.49141   -216.67925     143.1132    140.70319    140.87304    216.67925   0.57143078 
     620    2836932.1    298.80913   -504.58108     143.1837    140.64825    140.87082    504.58108   0.57220489 
     640    2836896.5      298.555   -57.626015     143.2542      140.616    140.83201    57.626015   0.57297899 
     660    2838310.3    299.13536   -225.60675     143.3247    140.60941    140.83949    225.60675    0.5737531 
     680    2837807.3    299.61124   -51.319523     143.3952    140.55641    140.79838    51.319523    0.5745272 
     700    2838846.4    299.40986   -210.68523     143.4657    140.56021    140.77691    210.68523    0.5753013 
     720    2840282.7    300.14141   -61.455314     143.5362    140.55079    140.78839    61.455314   0.57607541 
     740    2840912.4     299.7772   -271.53687     143.6067    140.52028    140.78103    271.53687   0.57684951 
     760    2840869.1     300.0135     70.98702     143.6772    140.49097    140.73916    -70.98702   0.57762362 
     780    2842080.9    300.78995   -375.68597     143.7477    140.50058    140.72052    375.68597   0.57839772 
     800    2843075.7    298.94147    87.587577    143.81819    140.49796     140.7034   -87.587577   0.57917182 
     820    2842211.1    300.03022   -193.27977    143.88869    140.45315    140.63655    193.27977   0.57994593 
     840    2843428.3    299.11974   -173.91221    143.95919    140.41233    140.66876    173.91221   0.58072003 
     860    2844275.8    300.21514    83.555891    144.02969    140.39578    140.65839   -83.555891   0.58149413 
     880    2843877.7    300.49699    189.73843    144.10019    140.35146    140.61428   -189.73843   0.58226824 
     900    2845177.2    299.83119   -46.832668    144.17069    140.36624    140.59494    46.832668   0.58304234 
     920    2846999.7    300.10182   -180.05265    144.24119    140.35975    140.62274    180.05265   0.58381645 
     940      2846569    300.45351   -229.16002    144.31169    140.32054    140.57204    229.16002   0.58459055 
     960    2847676.6    300.16621   -357.24425    144.38219    140.34808    140.53049    357.24425   0.58536465 
     980    2848476.2    301.31962    -272.0632    144.45269    140.33061    140.51884     272.0632   0.58613876 
    1000    2847762.7     299.9392    -90.68653    144.52319    140.25443    140.49138     90.68653   0.58691286 
    1020    2849505.2    300.34476    -198.9679    144.59368    140.26084    140.50238     198.9679   0.58768697 
    1040    2847830.5    300.09495   -171.87265    144.66418    140.17699    140.43533    171.87265   0.58846107 
    1060    2850288.7    300.26812   -420.47688    144.73468     140.1877    140.47736    420.47688   0.58923517 
    1080    2850545.1    300.28335   -433.20246    144.80518    140.18667    140.42263    433.20246   0.59000928 
    1100    2849765.8    300.15398   -415.77217    144.87568    140.17919    140.32341    415.77217   0.59078338 
    1120    2850098.9    300.47876   -13.433615    144.94618    140.15518    140.29558    13.433615   0.59155748 
    1140      2851291    300.20994   -453.85574    145.01668    140.16483    140.27638    453.85574   0.59233159 
    1160      2852043    299.44663   -383.83472    145.08718    140.15282     140.2572    383.83472   0.59310569 
    1180    2850846.2     300.3518   -334.51708    145.15768    140.06824    140.21488    334.51708    0.5938798 
    1200    2851703.3    299.91159   -480.01237    145.22818    140.05786    140.19934    480.01237    0.5946539 
    1220    2851096.7    299.60642   -180.94886    145.29868     140.0142     140.1452    180.94886     0.595428 
    1240    2851966.4    299.52702   -269.06292    145.36917    139.96855    140.16566    269.06292   0.59620211 
    1260    2851005.5    300.14636   -236.06992    145.43967     139.8867    140.13246    236.06992   0.59697621 
    1280    2851969.8     299.2406   -168.89128    145.51017    139.88381    140.11484    168.89128   0.59775032 
    1300    2852055.5    299.15643   -346.27142    145.58067    139.85659    140.07845    346.27142   0.59852442 
    1320    2853044.2    300.32374   -381.52575    145.65117    139.82723    140.08859    381.52575   0.59929852 
    1340    2853933.7     300.3826   -320.78796    145.72167    139.84184    140.04983    320.78796   0.60007263 
    1360    2854272.4    299.05477   -244.81713    145.79217     139.8036    140.03702    244.81713   0.60084673 
    1380      2854936    299.74546   -369.13152    145.86267    139.76933    140.03621    369.13152   0.60162083 
    1400    2854474.2    300.08671   -132.07793    145.93317    139.74568     139.9696    132.07793   0.60239494 
    1420    2856858.7     300.1503    -451.0497    146.00367    139.80418     139.9603     451.0497   0.60316904 
    1440    2855920.7    300.65662   -326.98116    146.07417    139.74029    139.91075    326.98116   0.60394315 
    1460    2856025.7    299.65376   -155.36763    146.14466    139.71693    139.87178    155.36763   0.60471725 
    1480    2857394.4    300.70385   -284.71541    146.21516    139.73849    139.84976    284.71541   0.60549135 
    1500      2859079    300.27119   -334.31359    146.28566    139.73788    139.86538    334.31359   0.60626546 
    1520    2858086.6    299.87772   -445.06861    146.35616    139.66709    139.82032    445.06861   0.60703956 
    1540    2859636.2    299.34376   -472.05071    146.42666    139.67849    139.81735    472.05071   0.60781366 
    1560    2860227.6    300.34575    -464.8512    146.49716    139.64496    139.81254     464.8512   0.60858777 
    1580      2860281    300.16215   -451.84186    146.56766    139.61784    139.77504    451.84186   0.60936187 
    1600    2859598.1    300.27185   -305.62979    146.63816    139.58778    139.70457    305.62979   0.61013598 
    1620    2861739.1    299.41129   -465.44484    146.70866    139.58112    139.74864    465.44484   0.61091008 
    1640    2863180.6    299.89359   -429.82009    146.77916    139.57626    139.75675    429.82009   0.61168418 
    1660      2861508    300.80122   -402.67394    146.84966    139.52666    139.65769    402.67394   0.61245829 
    1680    2862585.5    301.19613   -399.23547    146.92016    139.51207    139.65783    399.23547   0.61323239 
    1700    2862982.6    300.09318   -533.98114    146.99065    139.45563    139.66672    533.98114    0.6140065 
    1720    2863354.2    299.45064   -294.57704    147.06115    139.45513    139.61839    294.57704    0.6147806 
    1740      2862417    300.65083   -336.29522    147.13165    139.41638    139.54459    336.29522    0.6155547 
    1760    2863321.6    299.49482   -324.69562    147.20215    139.38276    139.55549    324.69562   0.61632881 
    1780    2863716.3    299.75227   -430.75731    147.27265    139.37113    139.51955    430.75731   0.61710291 
    1800    2864821.7     299.6284   -487.69502    147.34315    139.38908    139.48866    487.69502   0.61787701 
    1820    2864576.8    300.07189   -338.03058    147.41365    139.33643     139.4627    338.03058   0.61865112 
    1840    2865938.9    299.75801   -179.35545    147.48415     139.3466    139.45215    179.35545   0.61942522 
    1860    2865966.6    299.41026   -369.99749    147.55465     139.2945    139.43901    369.99749   0.62019933 
    1880    2867192.5    299.75888   -519.96247    147.62515    139.31524    139.41127    519.96247   0.62097343 
    1900    2867484.6    300.40732   -401.05313    147.69565    139.27493    139.39925    401.05313   0.62174753 
    1920    2867750.1    299.41028   -475.77826    147.76614    139.24206    139.37854    475.77826   0.62252164 
    1940    2869055.8    299.75284   -398.67247    147.83664    139.23754    139.38003    398.67247   0.62329574 
    1960    2867774.9     299.7118   -456.18474    147.90714    139.16322    139.32576    456.18474   0.62406985 
    1980    2871205.4    300.96733     -558.363    147.97764    139.23683    139.35226      558.363   0.62484395 
    2000    2870764.5    299.27067   -549.43983    148.04814    139.20088    139.30048    549.43983   0.62561805 
    2020    2872258.8    299.39252   -664.65769    148.11864    139.19369    139.31385    664.65769   0.62639216 
    2040    2871741.2     299.6843   -538.02183    148.18914    139.13866    139.27755    538.02183   0.62716626 
    2060    2873270.3    300.45415   -595.09444    148.25964    139.13304    139.29107    595.09444   0.62794036 
    2080      2874554    299.35604   -503.44916    148.33014    139.12395    139.29617    503.44916   0.62871447 
    2100    2874312.6    299.70577   -621.91592    148.40064    139.12207    139.22019    621.91592   0.62948857 
    2120      2875717    299.96936   -583.29725    148.47114    139.11991    139.22424    583.29725   0.63026268 
    2140    2875362.5    299.38558   -563.99488    148.54163    139.07148    139.18945    563.99488   0.63103678 
    2160      2876788    299.09542   -542.09602    148.61213    139.06998    139.19389    542.09602   0.63181088 
    2180      2876676    299.46594   -382.21653    148.68263     139.0474    139.14507    382.21653   0.63258499 
    2200    2877467.5    299.50874   -383.68579    148.75313     139.0394     139.1254    383.68579   0.63335909 
    2220      2878458    299.51145   -395.32354    148.82363     139.0213    139.12547    395.32354    0.6341332 
    2240    2879995.5    299.17987   -558.36452    148.89413     139.0451    139.11006    558.36452    0.6349073 
    2260    2879460.5    299.32683   -437.14746    148.96463    139.05389    139.00961    437.14746    0.6356814 
    2280    2879958.2    299.46113   -555.35133    149.03513    139.03877    138.98299    555.35133   0.63645551 
    2300    2880220.2    299.62825   -575.24993    149.10563    139.01674    138.95192    575.24993   0.63722961 
    2320    2880968.4    298.80921   -508.34614    149.17613    139.01326    138.92581    508.34614   0.63800371 
    2340    2879933.3    299.04049   -477.94852    149.24663     138.9524    138.87109    477.94852   0.63877782 
    2360    2879012.3    299.02005   -255.91951    149.31713    138.90761    138.80588    255.91951   0.63955192 
    2380    2880336.6    300.39338   -445.19706    149.38762    138.89081    138.82098    445.19706   0.64032603 
    2400    2879848.2    300.01741    -404.7649    149.45812    138.84353    138.77921     404.7649   0.64110013 
    2420    2879548.8    300.29689   -540.95143    149.52862    138.80516     138.7377    540.95143   0.64187423 
    2440    2880493.7    300.01708    -480.9662    149.59912    138.80799      138.715     480.9662   0.64264834 
    2460    2881800.6    300.86057   -532.61967    149.66962    138.80595     138.7146    532.61967   0.64342244 
    2480    2882051.7    300.88903   -596.79368    149.74012    138.75704    138.71026    596.79368   0.64419655 
    2500    2882351.2     300.5337   -429.90838    149.81062    138.75164    138.66478    429.90838   0.64497065 
    2520    2881349.7    300.73246   -328.20329    149.88112    138.71884    138.58416    328.20329   0.64574475 
    2540    2883879.6    301.02012    -420.0114    149.95162    138.74472    138.61477     420.0114   0.64651886 
    2560    2884317.4    300.79654   -564.86325    150.02212    138.72785    138.58752    564.86325   0.64729296 
    2580    2885767.7    300.53067   -511.18337    150.09262    138.70551    138.61439    511.18337   0.64806706 
    2600    2885700.6    301.30554   -542.88808    150.16311    138.66453    138.58704    542.88808   0.64884117 
    2620    2886642.6    300.06604   -617.40168    150.23361    138.68293    138.54884    617.40168   0.64961527 
    2640    2888134.8    301.01285   -467.60868    150.30411    138.71849    138.51992    467.60868   0.65038938 
    2660    2887444.7     299.9952   -543.90572    150.37461    138.65235    138.48793    543.90572   0.65116348 
    2680    2888477.7    301.14254   -518.33827    150.44511    138.68694    138.43802    518.33827   0.65193758 
    2700    2887574.5    300.26023   -425.62696    150.51561    138.63006    138.38666    425.62696   0.65271169 
    2720    2889449.9    300.15779   -408.07252    150.58611     138.6447    138.39709    408.07252   0.65348579 
    2740    2889132.2    300.32234   -353.09742    150.65661    138.58493    138.37678    353.09742    0.6542599 
    2760    2889503.7    300.00651   -309.13989    150.72711    138.54728    138.36744    309.13989     0.655034 
    2780      2890205    300.62837    -294.6347    150.79761    138.52497     138.3586     294.6347    0.6558081 
    2800    2892086.6    300.45769   -540.06834    150.86811    138.55501    138.35397    540.06834   0.65658221 
    2820    2893090.4    299.77886   -643.02883     150.9386    138.55747    138.33489    643.02883   0.65735631 
    2840    2893855.3    300.33714   -778.19143     151.0091    138.50011    138.36415    778.19143   0.65813041 
    2860    2893590.8    300.23229   -553.80123     151.0796    138.45988    138.32711    553.80123   0.65890452 
    2880    2894020.4     300.5589   -563.36467     151.1501    138.44094    138.30204    563.36467   0.65967862 
    2900    2894783.3    299.98802   -633.71873     151.2206    138.42241    138.29252    633.71873   0.66045273 
    2920    2893876.1    300.55825   -760.08512     151.2911    138.34834    138.25874    760.08512   0.66122683 
    2940    2895237.9     300.2355   -840.97692     151.3616    138.38327    138.22447    840.97692   0.66200093 
    2960    2895440.7    299.83636   -763.89259     151.4321    138.33481    138.21821    763.89259   0.66277504 
    2980    2896484.5    299.99584   -729.09036     151.5026    138.35437    138.18415    729.09036   0.66354914 
    3000    2896847.9    300.11932   -725.60199     151.5731    138.35655    138.13504    725.60199   0.66432324 
    3020    2896911.9    300.11339   -621.24093     151.6436    138.31939    138.11096    621.24093   0.66509735 
    3040    2896631.6     299.8687   -529.35993    151.71409    138.27155    138.08118    529.35993   0.66587145 
    3060    2896728.6    299.73455   -452.88566    151.78459    138.23983    138.05334    452.88566   0.66664556 
    3080    2896596.8    300.57642   -459.30922    151.85509    138.19077    138.03196    459.30922   0.66741966 
    3100    2897432.7    300.14153   -486.22511    151.92559    138.20166    137.99685    486.22511   0.66819376 
    3120    2897728.6    299.99608   -516.46278    151.99609    138.22367    137.92496    516.46278   0.66896787 
    3140    2897039.5    299.06761   -338.09929    152.06659    138.19117    137.86065    338.09929   0.66974197 
    3160    2898325.8    299.81166   -492.96582    152.13709    138.19613      137.853    492.96582   0.67051608 
    3180    2899204.1    299.45096   -457.71885    152.20759    138.20062    137.82642    457.71885   0.67129018 
    3200    2899890.9    300.42247   -638.15514    152.27809    138.20414    137.79174    638.15514   0.67206428 
    3220    2900395.9    299.52115   -571.07236    152.34859    138.18563    137.77042    571.07236   0.67283839 
    3240    2901533.1    300.39614   -570.98765    152.41909    138.19878    137.74758    570.98765   0.67361249 
    3260    2901372.1    300.64827   -464.35392    152.48959      138.153    137.72188    464.35392   0.67438659 
    3280    2902717.1    300.78174   -592.57129    152.56008    138.14031     137.7347    592.57129    0.6751607 
    3300    2902898.8    300.28766   -521.28483    152.63058    138.11703     137.7029    521.28483    0.6759348 
    3320    2904126.5    299.87379   -513.34575    152.70108     138.1146    137.69997    513.34575   0.67670891 
    3340    2904827.7    300.98695   -568.72261    152.77158    138.10167    137.68253    568.72261   0.67748301 
    3360    2905672.7    300.18244   -492.36916    152.84208    138.10184     137.6589    492.36916   0.67825711 
    3380    2905766.6    299.98278   -527.73693    152.91258    138.08985    137.61182    527.73693   0.67903122 
    3400    2906003.9    299.84627   -473.38901    152.98308    138.06948    137.57994    473.38901   0.67980532 
    3420    2906448.5    300.26266   -533.67366    153.05358    138.07561     137.5315    533.67366   0.68057943 
    3440    2907104.5    299.66976   -603.24534    153.12408    138.02892    137.54571    603.24534   0.68135353 
    3460    2908790.9    299.80675    -591.1107    153.19458    137.99799      137.593     591.1107   0.68212763 
    3480    2908550.9    300.62068   -497.53952    153.26508    137.94662    137.56957    497.53952   0.68290174 
    3500    2908956.5    300.09466   -370.90278    153.33557    137.93127     137.5408    370.90278   0.68367584 
    3520    2909103.3    300.03727   -538.93525    153.40607    137.93711    137.47872    538.93525   0.68444994 
    3540    2910286.6    299.44848    -488.2757    153.47657    137.89224    137.51619     488.2757   0.68522405 
    3560    2910836.9    300.54906   -576.53341    153.54707    137.81829    137.55282    576.53341   0.68599815 
    3580    2911827.9    300.26828     -552.901    153.61757    137.79979    137.55496      552.901   0.68677226 
    3600    2912391.8    300.07971   -609.70828    153.68807       137.79    137.52826    609.70828   0.68754636 
    3620    2913218.4    299.64714   -583.61314    153.75857     137.7839     137.5103    583.61314   0.68832046 
    3640    2913195.1    300.14421   -527.93626    153.82907    137.75276    137.47725    527.93626   0.68909457 
    3660    2913970.2    299.98799   -434.14802    153.89957    137.71601    137.48752    434.14802   0.68986867 
    3680    2915837.8    300.41733    -649.4197    153.97007    137.74864    137.48007     649.4197   0.69064278 
    3700    2915590.2    300.31255   -612.83128    154.04057    137.71872    137.43533    612.83128   0.69141688 
    3720    2914642.2     300.7406   -508.90486    154.11106    137.66089    137.38549    508.90486   0.69219098 
    3740    2915595.5    299.92909   -458.62231    154.18156    137.68023    137.34828    458.62231   0.69296509 
    3760    2916911.5    300.16349   -495.04147    154.25206    137.69112    137.33662    495.04147   0.69373919 
    3780    2916928.3     299.2991   -642.81299    154.32256    137.68176    137.28399    642.81299   0.69451329 
    3800    2917981.2    300.07834   -753.06118    154.39306    137.68697    137.26564    753.06118    0.6952874 
    3820    2918450.9    300.09028   -802.35147    154.46356    137.67822     137.2338    802.35147    0.6960615 
    3840    2918986.9    299.49181   -865.44306    154.53406    137.61669    137.25774    865.44306   0.69683561 
    3860      2918305     300.2854   -678.93854    154.60456    137.58726    137.19243    678.93854   0.69760971 
    3880      2919333    300.09193   -706.39505    154.67506    137.57567    137.18976    706.39505   0.69838381 
    3900    2920134.5    300.32778   -574.64299    154.74556    137.53987    137.20061    574.64299   0.69915792 
    3920    2920239.7    300.29577   -648.22307    154.81606    137.47577    137.20702    648.22307   0.69993202 
    3940    2921318.4     299.9054   -692.53485    154.88656    137.48294    137.18807    692.53485   0.70070613 
    3960    2922609.3    300.33202   -710.80152    154.95705    137.46777    137.20139    710.80152   0.70148023 
    3980      2922873    300.04335   -785.73637    155.02755    137.44174    137.17735    785.73637   0.70225433 
    4000    2922851.1    300.18461   -709.60003    155.09805    137.42378    137.13189    709.60003   0.70302844 
    4020    2924290.4    300.09278   -578.73695    155.16855    137.41961    137.14124    578.73695   0.70380254 
    4040    2925061.4    299.69699   -674.92537    155.23905     137.3842    137.15044    674.92537   0.70457664 
    4060    2925012.6    299.84662    -483.3376    155.30955    137.33614    137.13387     483.3376   0.70535075 
    4080    2925150.3    299.44357   -344.07877    155.38005    137.33307    137.08117    344.07877   0.70612485 
    4100    2926125.6    300.14818   -305.61489    155.45055    137.30246    137.09524    305.61489   0.70689896 
    4120    2925967.8    300.54723   -324.92521    155.52105    137.28911    137.03903    324.92521   0.70767306 
    4140    2926619.5    300.49219   -333.10573    155.59155    137.28211    137.01443    333.10573   0.70844716 
    4160    2927838.2    300.21298   -557.48686    155.66205    137.27108    137.02042    557.48686   0.70922127 
    4180      2929325    299.94236   -478.21424    155.73254    137.25854    137.04046    478.21424   0.70999537 
    4200    2929892.5    299.34306   -636.44863    155.80304    137.25318    137.01033    636.44863   0.71076947 
    4220    2929575.1    299.71283   -462.87624    155.87354    137.22961    136.95705    462.87624   0.71154358 
    4240    2930888.4    300.48238   -532.43051    155.94404     137.2263    136.95981    532.43051   0.71231768 
    4260    2931415.1    299.96126   -533.64527    156.01454      137.188    136.96074    533.64527   0.71309179 
    4280      2931842    298.94205   -504.89014    156.08504    137.18681    136.92001    504.89014   0.71386589 
    4300    2932383.2    300.13721   -550.57528    156.15554    137.18535    136.88492    550.57528   0.71463999 
    4320    2933226.5    299.59408     -592.982    156.22604    137.14409    136.90367      592.982    0.7154141 
    4340    2933389.8    299.40579    -513.6608    156.29654    137.08856    136.90497     513.6608    0.7161882 
    4360    2933919.6    299.61941   -567.20025    156.36704     137.0182    136.93824    567.20025   0.71696231 
    4380    2933705.3    299.50788   -548.71505    156.43754    137.02562    136.85912    548.71505   0.71773641 
    4400    2933684.8    299.59034   -512.39151    156.50803    136.96823    136.85383    512.39151   0.71851051 
    4420    2934855.4    300.07894    -812.5042    156.57853    136.93864    136.87637     812.5042   0.71928462 
    4440    2935720.6      299.256   -772.71471    156.64903    136.92037    136.87336    772.71471   0.72005872 
    4460    2935471.7     299.8285   -628.77131    156.71953    136.87069    136.84984    628.77131   0.72083282 
    4480    2935737.6    299.68001   -512.41461    156.79003    136.83825    136.83313    512.41461   0.72160693 
    4500    2937167.5    300.09996   -371.93089    156.86053     136.8736    136.80292    371.93089   0.72238103 
    4520    2936641.6    300.09747   -336.97759    156.93103    136.84881    136.74173    336.97759   0.72315514 
    4540    2937326.3    299.93929   -326.44684    157.00153    136.81884    136.74215    326.44684   0.72392924 
    4560    2937804.2    300.17407   -464.96733    157.07203    136.82371    136.69815    464.96733   0.72470334 
    4580      2938298    300.22013   -462.63458    157.14253    136.82154    136.66196    462.63458   0.72547745 
    4600    2939523.6     300.6147   -814.39275    157.21303    136.80124    136.67793    814.39275   0.72625155 
    4620    2940272.4    300.76124   -780.61116    157.28353    136.79899    136.65372    780.61116   0.72702566 
    4640    2940524.4    300.98135   -734.39818    157.35402    136.77524    136.62792    734.39818   0.72779976 
    4660    2941232.4    300.77874   -700.30941    157.42452    136.74196    136.63286    700.30941   0.72857386 
    4680    2941226.7    300.82676   -618.62767    157.49502    136.72443    136.58894    618.62767   0.72934797 
    4700      2942294    300.38287   -603.48986    157.56552    136.70794    136.59385    603.48986   0.73012207 
    4720      2943703    299.97618   -711.43833    157.63602    136.71496    136.59112    711.43833   0.73089617 
    4740    2942897.9    299.84302   -687.97286    157.70652    136.66058    136.54704    687.97286   0.73167028 
    4760    2943949.6    299.95405   -663.12262    157.77702    136.66497    136.53042    663.12262   0.73244438 
    4780    2945908.9    300.09385   -836.63076    157.84752    136.64049    136.58472    836.63076   0.73321849 
    4800    2946068.7     299.8053   -720.20584    157.91802    136.62342    136.54822    720.20584   0.73399259 
    4820    2945732.6     299.7764   -549.95475    157.98852    136.57962    136.51549    549.95475   0.73476669 
    4840    2946760.4    299.94086   -516.65965    158.05902    136.54537    136.53644    516.65965    0.7355408 
    4860    2946581.8    300.17033   -447.67635    158.12951    136.49772    136.51494    447.67635    0.7363149 
    4880    2947346.3    299.93145   -598.01498    158.20001    136.53599    136.45125    598.01498   0.73708901 
    4900    2948412.9     300.1083   -575.33141    158.27051    136.53542    136.44039    575.33141   0.73786311 
    4920      2949678    300.12762   -637.55839    158.34101     136.5161    136.45748    637.55839   0.73863721 
    4940    2950315.3    300.13881   -571.80292    158.41151     136.4795     136.4628    571.80292   0.73941132 
    4960    2950604.6    299.48405   -561.04061    158.48201    136.44868    136.44628    561.04061   0.74018542 
    4980    2951352.7     299.8761   -437.82046    158.55251    136.41921    136.44966    437.82046   0.74095952 
    5000    2951382.4    300.65788    -351.8102    158.62301    136.41037    136.39922     351.8102   0.74173363 
    5020    2952461.7    300.50945   -493.14949    158.69351    136.41691    136.38195    493.14949   0.74250773 
    5040    2953816.1    299.93483   -625.70249    158.76401    136.42829    136.37255    625.70249   0.74328184 
    5060    2955204.1    300.05876   -617.80305    158.83451    136.45876    136.34562    617.80305   0.74405594 
    5080    2953695.5     299.7472   -614.75764      158.905    136.37062    136.30361    614.75764   0.74483004 
    5100    2953888.9     300.1111   -615.31415     158.9755    136.35016    136.27252    615.31415   0.74560415 
    5120    2954785.1    299.37047    -612.2292      159.046     136.3301     136.2735     612.2292   0.74637825 
    5140    2956260.7    299.70035   -561.76511     159.1165    136.36526      136.246    561.76511   0.74715236 
    5160    2956957.5    299.75021   -553.65943      159.187     136.3496    136.23341    553.65943   0.74792646 
    5180    2957642.3    299.23575   -599.77191     159.2575    136.35789    136.19636    599.77191   0.74870056 
    5200    2959029.1    299.79537   -749.14469      159.328    136.37118    136.18666    749.14469   0.74947467 
    5220    2959077.3    300.13057   -828.58443     159.3985    136.35721    136.14258    828.58443   0.75024877 
    5240    2959561.4    300.08381   -778.30656      159.469    136.32134    136.14047    778.30656   0.75102287 
    5260    2959984.5    300.54673   -604.93129     159.5395    136.30153    136.11955    604.93129   0.75179698 
    5280    2960774.4     299.7554    -732.5066       159.61    136.28517    136.11207     732.5066   0.75257108 
    5300    2961890.1    300.24633   -636.75247    159.68049    136.27454    136.11386    636.75247   0.75334519 
    5320    2963084.7    299.81955   -697.11702    159.75099    136.28589    136.09733    697.11702   0.75411929 
    5340    2963637.8    300.14072   -557.05774    159.82149    136.27869    136.06988    557.05774   0.75489339 
    5360    2963772.7    300.34095   -518.37511    159.89199    136.26113     136.0336    518.37511    0.7556675 
    5380    2964331.8    300.50802   -539.42825    159.96249    136.22232    136.03804    539.42825    0.7564416 
    5400    2966948.3    300.23341    -704.7814    160.03299    136.28489    136.03565     704.7814   0.75721571 
    5420    2967533.8     299.6835   -703.73241    160.10349    136.28717    136.00031    703.73241   0.75798981 
    5440      2967220    301.18201   -611.81817    160.17399    136.19615    136.01692    611.81817   0.75876391 
    5460    2968569.3    300.22516   -568.75139    160.24449    136.19034     136.0247    568.75139   0.75953802 
    5480    2970237.2    300.38701   -615.54446    160.31499    136.22135    136.01031    615.54446   0.76031212 
    5500    2971490.2     299.7742   -610.53976    160.38549      136.209     136.0202    610.53976   0.76108622 
    5520    2973152.5    300.32098    -745.4719    160.45599    136.21895    136.02656     745.4719   0.76186033 
    5540    2974471.7    300.37282   -672.87136    160.52648    136.23553     136.0106    672.87136   0.76263443 
    5560    2974739.9    300.01746   -773.66237    160.59698     136.2059    135.99274    773.66237   0.76340854 
    5580    2975512.2    300.12417   -709.49124    160.66748    136.20498    135.96927    709.49124   0.76418264 
    5600    2976766.8    300.14943   -765.74841    160.73798    136.19613    135.97577    765.74841   0.76495674 
    5620    2978372.3    300.44318   -602.32077    160.80848    136.19962    135.98598    602.32077   0.76573085 
    5640    2977576.5    300.35676   -607.36714    160.87898    136.14206    135.94753    607.36714   0.76650495 
    5660    2978505.3     299.9975   -542.74956    160.94948    136.12305    135.94934    542.74956   0.76727905 
    5680    2979223.1    300.32795   -513.50782    161.01998    136.12702    135.91861    513.50782   0.76805316 
    5700    2979298.6     300.3837   -510.67553    161.09048    136.11093    135.87863    510.67553   0.76882726 
    5720      2979246    300.15935   -478.47662    161.16098    136.03038    135.89722    478.47662   0.76960137 
    5740    2981152.1    300.09613   -552.56775    161.23148     136.0466     135.9085    552.56775   0.77037547 
    5760    2984241.5    300.37842   -789.15802    161.30197    136.07274    135.96375    789.15802   0.77114957 
    5780    2983644.3    299.79512   -834.52102    161.37247    136.01984       135.93    834.52102   0.77192368 
    5800    2983793.5    300.60906    -753.6199    161.44297    135.97831    135.91894     753.6199   0.77269778 
    5820    2984838.7    300.44262   -608.77997    161.51347    135.98155    135.90397    608.77997   0.77347189 
    5840    2984753.2    299.90206   -675.40395    161.58397    135.91353    135.90877    675.40395   0.77424599 
    5860    2985348.4    300.07655   -668.34502    161.65447    135.90441     135.8857    668.34502   0.77502009 
    5880    2986718.3    300.18885   -728.76992    161.72497    135.94321    135.85001    728.76992    0.7757942 
    5900    2986743.5    300.28139   -628.20878    161.79547    135.89788    135.83725    628.20878    0.7765683 
    5920    2987105.3    300.17241   -676.82649    161.86597    135.89856    135.79386    676.82649    0.7773424 
    5940    2986852.6    300.38481   -571.20642    161.93647    135.87734    135.74445    571.20642   0.77811651 
    5960    2988398.3    300.30684   -651.29076    162.00697     135.8468    135.78612    651.29076   0.77889061 
    5980    2989044.9    300.33873    -626.9022    162.07746    135.83179    135.77143     626.9022   0.77966472 
    6000    2988885.1    300.35526   -685.03296    162.14796    135.78771    135.74919    685.03296   0.78043882 
    6020    2990333.5    300.06276    -626.1206    162.21846    135.77891    135.76475     626.1206   0.78121292 
    6040    2990023.9     300.2619   -464.31418    162.28896    135.75662      135.714    464.31418   0.78198703 
    6060    2989669.5    300.34004   -461.98197    162.35946    135.73072    135.66487    461.98197   0.78276113 
    6080    2990655.8    299.68692   -520.88733    162.42996    135.74084    135.64062    520.88733   0.78353524 
    6100    2991218.6    299.92046   -574.23668    162.50046    135.72882     135.6193    574.23668   0.78430934 
    6120    2991814.1    299.67485   -638.45564    162.57096     135.7287    135.58759    638.45564   0.78508344 
    6140      2992428    300.34516   -575.55826    162.64146    135.71782    135.56749    575.55826   0.78585755 
    6160    2993653.9     299.5797   -497.89283    162.71196     135.6976    135.58447    497.89283   0.78663165 
    6180    2995060.6    300.16011   -316.33413    162.78246    135.67181    135.61521    316.33413   0.78740575 
    6200    2994442.7       300.05   -343.50874    162.85296    135.63083    135.56948    343.50874   0.78817986 
    6220    2997025.4    300.33239   -418.44976    162.92345    135.69429    135.56427    418.44976   0.78895396 
    6240    2998846.9    299.90678   -575.29927    162.99395    135.71259    135.56971    575.29927   0.78972807 
    6260    2999826.7    300.02055    -591.4438    163.06445    135.71499    135.55297     591.4438   0.79050217 
    6280      3000681     300.1285   -758.71609    163.13495    135.66876    135.57916    758.71609   0.79127627 
    6300    2999695.6    300.00547   -545.34892    163.20545    135.62065    135.52415    545.34892   0.79205038 
    6320    3000925.9    300.03598   -586.14041    163.27595    135.62831    135.51355    586.14041   0.79282448 
    6340      3001735    299.65218   -602.92707    163.34645    135.59635    135.52352    602.92707   0.79359859 
    6360      3002149    299.56842   -601.33432    163.41695    135.57177    135.50829    601.33432   0.79437269 
    6380      3002623    299.88228   -555.60045    163.48745    135.56283    135.48018    555.60045   0.79514679 
    6400    3002398.8    299.54888    -615.2696    163.55795    135.52296    135.45151     615.2696    0.7959209 
    6420    3003248.5    300.21248   -502.34694    163.62845     135.5087    135.44572    502.34694     0.796695 
    6440      3003936    300.12721   -600.35575    163.69894    135.50849    135.41859    600.35575    0.7974691 
    6460      3003535    299.74324   -471.54177    163.76944    135.47345    135.37723    471.54177   0.79824321 
    6480    3003638.3    299.70579   -514.46852    163.83994    135.42694    135.37012    514.46852   0.79901731 
    6500    3003867.6    299.64657   -508.77519    163.91044    135.41662    135.33253    508.77519   0.79979142 
    6520    3004290.7    299.61902   -523.59775    163.98094    135.39237    135.31764    523.59775   0.80056552 
    6540    3004472.5    299.40462   -593.88318    164.05144    135.38706    135.27297    593.88318   0.80133962 
    6560      3005044     300.1597   -637.26234    164.12194    135.35607    135.27155    637.26234   0.80211373 
    6580    3006015.1    299.74355    -637.7954    164.19244    135.29502     135.3182     637.7954   0.80288783 
    6600    3006957.4    299.99481   -663.48357    164.26294     135.2935    135.30403    663.48357   0.80366194 
    6620    3007107.4    299.56758   -524.94884    164.33344    135.28122    135.26502    524.94884   0.80443604 
    6640    3007796.6    299.65684   -517.47863    164.40394    135.25417    135.26505    517.47863   0.80521014 
    6660    3008462.1    300.48556   -364.28508    164.47443    135.24327    135.24789    364.28508   0.80598425 
    6680    3008649.5    300.37435   -381.56211    164.54493    135.25521    135.18642    381.56211   0.80675835 
    6700      3010802    299.50424   -481.50434    164.61543    135.24345    135.23696    481.50434   0.80753245 
    6720    3012729.4    300.40053   -645.06546    164.68593    135.28222    135.22684    645.06546   0.80830656 
    6740    3012695.3    300.34549   -685.41375    164.75643    135.25974    135.18991    685.41375   0.80908066 
    6760    3013947.2    300.54357    -745.4191    164.82693    135.26322    135.18476     745.4191   0.80985477 
    6780    3015443.3    300.10396   -772.86642    164.89743    135.27391    135.18337    772.86642   0.81062887 
    6800    3016556.3     300.2295   -658.88916    164.96793    135.30559    135.14382    658.88916   0.81140297 
    6820    3016656.4    299.97951   -636.94099    165.03843    135.24627    135.14982    636.94099   0.81217708 
    6840    3017166.1    300.54433    -601.9914    165.10893      135.202    135.15918     601.9914   0.81295118 
    6860    3018494.6    299.98481   -514.37459    165.17943    135.24199    135.12102    514.37459   0.81372529 
    6880    3017913.1    300.64334   -549.47954    165.24993      135.239    135.04033    549.47954   0.81449939 
    6900    3018557.2    300.14705   -478.11539    165.32042    135.22862    135.02192    478.11539   0.81527349 
    6920    3019832.2    300.31139    -643.6763    165.39092    135.20995    135.04002     643.6763    0.8160476 
    6940    3021079.1    300.00664   -707.10602    165.46142    135.23626    135.01194    707.10602    0.8168217 
    6960    3021301.3    299.98483   -713.78415    165.53192    135.20459    134.99599    713.78415    0.8175958 
    6980    3021325.2    299.68568   -589.95448    165.60242     135.1768    134.96732    589.95448   0.81836991 
    7000    3022935.5    299.99141   -621.10579    165.67292    135.16306    134.99552    621.10579   0.81914401 
    7020    3022490.4     299.9717   -608.55135    165.74342    135.13446    134.94679    608.55135   0.81991812 
    7040    3023288.3     299.6863   -470.40541    165.81392    135.12828    134.93119    470.40541   0.82069222 
    7060      3025012    299.86401   -507.68208    165.88442    135.15215    134.92691    507.68208   0.82146632 
    7080    3026024.5    300.44064   -550.91381    165.95492    135.09641    134.97039    550.91381   0.82224043 
    7100    3027246.4    300.45132   -663.97683    166.02542    135.09644    134.96753    663.97683   0.82301453 
    7120    3028902.6    299.95919   -731.78952    166.09591    135.11579    134.96471    731.78952   0.82378863 
    7140    3029261.4    299.63107   -582.06051    166.16641    135.10733    134.93189    582.06051   0.82456274 
    7160      3030244    299.66935   -825.67104    166.23691    135.12105    134.90472    825.67104   0.82533684 
    7180    3030651.8    299.88975   -641.63398    166.30741    135.10667    134.88003    641.63398   0.82611095 
    7200    3031021.3    299.81527   -640.88221    166.37791    135.07517    134.87076    640.88221   0.82688505 
    7220    3032738.6    299.81039   -777.61555    166.44841    135.07661    134.88858    777.61555   0.82765915 
    7240      3032342    299.72781   -838.64294    166.51891    135.04764    134.84276    838.64294   0.82843326 
    7260    3034447.8    300.24936   -867.15937    166.58941    135.05058    134.87635    867.15937   0.82920736 
    7280    3035308.4    299.13916   -774.92779    166.65991    135.06924    134.83891    774.92779   0.82998147 
    7300    3034024.9     299.6622   -689.97375    166.73041    135.04177    134.75231    689.97375   0.83075557 
    7320    3035676.4    299.39976   -795.25843    166.80091    135.04251    134.76794    795.25843   0.83152967 
    7340    3036956.3    299.23744   -636.77159     166.8714    135.02637    134.78391    636.77159   0.83230378 
    7360    3037744.7    300.10097   -777.09818     166.9419    135.01613    134.77218    777.09818   0.83307788 
    7380    3037974.2    298.91523   -732.16176     167.0124    134.96407    134.77744    732.16176   0.83385198 
    7400    3037946.6    300.45754   -627.25905     167.0829     134.9125    134.77085    627.25905   0.83462609 
    7420    3039278.1    300.26102   -641.00078     167.1534    134.90507    134.78047    641.00078   0.83540019 
    7440      3038802    299.53005   -712.43681     167.2239    134.85377    134.75378    712.43681    0.8361743 
    7460    3039203.2     299.6601    -605.7299     167.2944    134.80269    134.76583     605.7299    0.8369484 
    7480      3040676    300.66455   -554.24876     167.3649    134.80551    134.77152    554.24876    0.8377225 
    7500    3040719.8    300.61581   -496.08768     167.4354    134.77641     134.7458    496.08768   0.83849661 
    7520    3041212.4    301.16029   -426.97565     167.5059     134.7739    134.71342    426.97565   0.83927071 
    7540    3041585.3    301.45544   -362.87721     167.5764    134.75351    134.69363    362.87721   0.84004482 
    7560      3041734    301.05038   -376.02162    167.64689    134.72328    134.67379    376.02162   0.84081892 
    7580    3042913.9    301.68355   -525.55269    167.71739    134.71288    134.67979    525.55269   0.84159302 
    7600    3044640.5    301.16546    -657.6606    167.78789    134.73229    134.68018     657.6606   0.84236713 
    7620    3046081.2    301.40208   -662.02266    167.85839    134.73381     134.6858    662.02266   0.84314123 
    7640    3046555.3    301.65149   -582.47199    167.92889    134.73139    134.65263    582.47199   0.84391533 
    7660    3045835.2    301.36009   -342.38336    167.99939    134.70659    134.58909    342.38336   0.84468944 
    7680    3046717.5    301.18969   -221.02177    168.06989    134.73682    134.54141    221.02177   0.84546354 
    7700    3047536.2    300.65278   -332.25553    168.14039    134.72536    134.53259    332.25553   0.84623765 
    7720    3049039.8    300.95092    -435.9949    168.21089    134.72774    134.54017     435.9949   0.84701175 
    7740    3049241.4    300.36948    -418.3199    168.28139    134.71568    134.50474     418.3199   0.84778585 
    7760    3049671.2    300.50499   -530.76823    168.35189    134.68571    134.49729    530.76823   0.84855996 
    7780    3051698.6     300.3996   -716.53006    168.42239    134.72391    134.49221    716.53006   0.84933406 
    7800    3051728.8    300.61747   -872.52145    168.49288    134.70417    134.45698    872.52145   0.85010817 
    7820    3052403.2    300.26585    -727.5792    168.56338    134.70622    134.42839     727.5792   0.85088227 
    7840    3053303.4    300.46861   -863.41079    168.63388    134.69602      134.422    863.41079   0.85165637 
    7860    3054279.3    300.28988   -767.30408    168.70438    134.73176    134.37312    767.30408   0.85243048 
    7880    3054918.7    301.09648   -628.17602    168.77488    134.73848    134.33841    628.17602   0.85320458 
    7900    3054247.8    299.97368   -509.93931    168.84538    134.66576    134.32532    509.93931   0.85397868 
    7920    3053672.2    300.23127   -505.41264    168.91588    134.62025    134.28934    505.41264   0.85475279 
    7940    3056038.5    299.93557   -556.91661    168.98638    134.64595    134.31169    556.91661   0.85552689 
    7960    3058061.4    300.37568   -757.81466    169.05688    134.65285    134.33767    757.81466     0.856301 
    7980    3056840.3    299.80014   -604.92284    169.12738    134.63482    134.24603    604.92284    0.8570751 
    8000    3056471.8     299.6641    -595.9454    169.19788    134.60782    134.20083     595.9454    0.8578492 
    8020      3058837    299.89629   -608.87281    169.26837    134.63291    134.22372    608.87281   0.85862331 
    8040    3059633.5    300.41652   -628.68274    169.33887     134.6367      134.199    628.68274   0.85939741 
    8060    3058760.2    299.41879   -431.14158    169.40937    134.60051    134.14092    431.14158   0.86017152 
    8080    3059308.9    299.81635   -481.24142    169.47987    134.58525    134.12439    481.24142   0.86094562 
    8100    3061580.2    299.67874    -360.2866    169.55037    134.58501    134.16839     360.2866   0.86171972 
    8120    3062945.9    299.90942   -537.25004    169.62087    134.57281    134.18461    537.25004   0.86249383 
    8140    3062581.7     299.8445   -437.89543    169.69137     134.5711    134.11462    437.89543   0.86326793 
    8160    3063047.9    299.37685   -390.07416    169.76187    134.55575    134.09462    390.07416   0.86404203 
    8180    3064143.9    299.63404   -425.71618    169.83237    134.52852    134.11406    425.71618   0.86481614 
    8200    3064726.6    300.25129    -475.3674    169.90287    134.52458    134.08783     475.3674   0.86559024 
    8220    3065820.6    300.10203   -467.06587    169.97337    134.52907    134.07559    467.06587   0.86636435 
    8240      3067678    300.06227   -672.39562    170.04386    134.55479    134.07557    672.39562   0.86713845 
    8260    3067161.9     299.8832   -546.41116    170.11436    134.52997    134.02218    546.41116   0.86791255 
    8280    3067639.9    300.55324   -530.87145    170.18486    134.50385    134.01355    530.87145   0.86868666 
    8300    3069739.1    300.44359   -531.78181    170.25536    134.50737    134.04622    531.78181   0.86946076 
    8320    3069812.9    299.57047   -412.32572    170.32586    134.51896    133.98242    412.32572   0.87023486 
    8340      3069775    299.87426   -413.90124    170.39636    134.48552    133.95864    413.90124   0.87100897 
    8360    3071570.8    300.16685   -551.34965    170.46686     134.4884    133.97869    551.34965   0.87178307 
    8380    3071996.4    300.04659   -517.27138    170.53736    134.47248    133.95773    517.27138   0.87255718 
    8400    3071317.4    299.18351   -662.84693    170.60786    134.42848    133.91659    662.84693   0.87333128 
    8420    3072999.7    299.33949   -762.86205    170.67836    134.42598    133.93709    762.86205   0.87410538 
    8440    3073946.9    300.30974   -834.26203    170.74886    134.44648    133.90263    834.26203   0.87487949 
    8460    3074055.6    299.97748    -656.0309    170.81936    134.41876    133.87971     656.0309   0.87565359 
    8480    3073298.6    298.96564   -714.62386    170.88985    134.36554    133.84451    714.62386    0.8764277 
    8500    3074444.3    299.80078    -532.8566    170.96035    134.39737     133.8075     532.8566    0.8772018 
    8520    3074581.7    299.97874   -561.35235    171.03085    134.36497    133.79058    561.35235    0.8779759 
    8540    3074357.9    299.65383   -566.24212    171.10135    134.33333    133.75721    566.24212   0.87875001 
    8560    3076367.1     299.6636    -681.9994    171.17185    134.35661    133.76632     681.9994   0.87952411 
    8580    3077472.5    299.94119   -755.48137    171.24235     134.3581    133.75781    755.48137   0.88029821 
    8600    3077161.1     300.2587   -744.74034    171.31285    134.33456    133.71266    744.74034   0.88107232 
    8620    3076955.9    301.18608   -803.84694    171.38335    134.28819    133.69489    803.84694   0.88184642 
    8640    3077815.1    299.90878   -629.71251    171.45385    134.28497    133.68045    629.71251   0.88262053 
    8660    3077776.8    299.72846   -544.43189    171.52435    134.29241    133.61643    544.43189   0.88339463 
    8680      3077634    299.96678   -473.35974    171.59485    134.31053    133.53733    473.35974   0.88416873 
    8700    3078605.1    299.97969   -531.51547    171.66534    134.30628    133.52883    531.51547   0.88494284 
    8720    3080194.8    300.30951   -713.91147    171.73584    134.28563    133.56347    713.91147   0.88571694 
    8740    3080402.3    300.03379   -748.66849    171.80634    134.28457    133.51871    748.66849   0.88649105 
    8760    3080039.7    300.25626   -771.59098    171.87684    134.27518    133.45757    771.59098   0.88726515 
    8780    3080709.3    300.84925   -708.89076    171.94734    134.31384    133.39344    708.89076   0.88803925 
    8800    3080977.3    299.43868   -612.48877    172.01784    134.28501    133.37901    612.48877   0.88881336 
    8820    3080967.4    300.43874    -508.6242    172.08834    134.28653    133.32242     508.6242   0.88958746 
    8840    3081055.7    299.68332   -566.46128    172.15884     134.2605    133.29749    566.46128   0.89036156 
    8860    3081822.7    300.50829   -441.16171    172.22934    134.23239    133.30401    441.16171   0.89113567 
    8880    3081918.1    299.84828   -488.57224    172.29984    134.21313    133.27271    488.57224   0.89190977 
    8900      3082736     299.5149    -442.4948    172.37034    134.17063    133.29577     442.4948   0.89268388 
    8920    3084331.9    299.75232   -505.11914    172.44083    134.16888    133.31199    505.11914   0.89345798 
    8940    3085168.6    300.40232   -558.10936    172.51133     134.1862    133.27645    558.10936   0.89423208 
    8960    3085398.4    299.65978   -629.56268    172.58183    134.17984    133.23824    629.56268   0.89500619 
    8980    3086215.5    299.66815   -686.01876    172.65233    134.13506    133.26358    686.01876   0.89578029 
    9000    3086462.5     299.8019    -654.2033    172.72283    134.11059    133.24415     654.2033    0.8965544 
    9020    3086504.9    300.56666   -717.11257    172.79333    134.06929    133.23266    717.11257    0.8973285 
    9040    3086477.3    300.53772   -646.59207    172.86383    134.05644     133.1899    646.59207    0.8981026 
    9060    3087550.1    299.91627   -710.35526    172.93433    134.04738    133.19088    710.35526   0.89887671 
    9080    3088312.9      300.568   -758.45148    173.00483     134.0613    133.15566    758.45148   0.89965081 
    9100      3087783    300.60298   -656.85179    173.07533    134.03358    133.10611    656.85179   0.90042491 
    9120    3088253.6    300.33867   -531.18966    173.14583     134.0291    133.07664    531.18966   0.90119902 
    9140    3089728.4    300.36334   -573.73115    173.21633    134.03167    133.08345    573.73115   0.90197312 
    9160    3090055.6    300.02711   -778.66217    173.28682    133.99544    133.07937    778.66217   0.90274723 
    9180    3089963.6    300.20371   -736.00288    173.35732    133.95839    133.05808    736.00288   0.90352133 
    9200    3092130.4    299.86469   -825.50733    173.42782    134.01628    133.03977    825.50733   0.90429543 
    9220    3092885.2    299.49293   -903.48502    173.49832     133.9715    133.06263    903.48502   0.90506954 
    9240    3093163.8    299.67628   -885.61788    173.56882     133.9547    133.03725    885.61788   0.90584364 
    9260    3093641.2    300.31148   -745.34855    173.63932    133.94156     133.0168    745.34855   0.90661775 
    9280    3094573.3    300.09009   -615.57469    173.70982    133.92952    133.01484    615.57469   0.90739185 
    9300    3094844.5     299.8077   -627.90059    173.78032    133.91011     132.9918    627.90059   0.90816595 
    9320    3095909.1    299.97024   -655.45629    173.85082     133.9314    132.96246    655.45629   0.90894006 
    9340      3097169    300.21625   -551.76496    173.92132    133.93843    132.95568    551.76496   0.90971416 
    9360    3098485.9    299.78438   -710.57939    173.99182    133.92291    132.97372    710.57939   0.91048826 
    9380      3098941    299.82126   -752.09657    174.06231    133.93685    132.92555    752.09657   0.91126237 
    9400    3098529.8    299.76612   -591.74395    174.13281    133.87663    132.91387    591.74395   0.91203647 
    9420    3099459.8    300.14079   -748.62234    174.20331    133.87198    132.90457    748.62234   0.91281058 
    9440    3100751.3    300.55881   -668.58835    174.27381    133.86993     132.9082    668.58835   0.91358468 
    9460    3101821.1    300.13651   -698.70671    174.34431    133.89027     132.8801    698.70671   0.91435878 
    9480    3101550.8    299.49203   -612.93164    174.41481     133.8378    132.86688    612.93164   0.91513289 
    9500    3102570.8    299.83344   -631.87278    174.48531    133.82969    132.86493    631.87278   0.91590699 
    9520    3103902.3    300.51767   -618.27487    174.55581    133.79555    132.90216    618.27487    0.9166811 
    9540    3105763.8     299.5306   -684.99846    174.62631    133.78326     132.9404    684.99846    0.9174552 
    9560    3105740.2    300.40928    -589.0206    174.69681    133.76907    132.89984     589.0206    0.9182293 
    9580    3106102.3    299.88147   -586.55129    174.76731     133.7564     132.8743    586.55129   0.91900341 
    9600    3107362.2    299.92068   -615.40172     174.8378    133.73848     132.8924    615.40172   0.91977751 
    9620    3108197.4    299.56375    -491.3765     174.9083    133.72817    132.88479     491.3765   0.92055161 
    9640    3108618.4    299.18169   -566.53369     174.9788    133.66629    132.91074    566.53369   0.92132572 
    9660    3110044.7    299.20384   -548.93948     175.0493    133.62405    132.96018    548.93948   0.92209982 
    9680      3110928    299.51335   -658.67129     175.1198    133.60606    132.96231    658.67129   0.92287393 
    9700    3110453.9    299.67646   -779.26367     175.1903    133.59511    132.89944    779.26367   0.92364803 
    9720    3112122.7    299.59703   -740.72306     175.2608    133.60437    132.90804    740.72306   0.92442213 
    9740    3113100.1    299.92188   -724.86555     175.3313    133.58764    132.91297    724.86555   0.92519624 
    9760    3112589.1    300.08895   -573.52948     175.4018     133.5628    132.86244    573.52948   0.92597034 
    9780    3111940.3    299.27345   -558.27831     175.4723    133.50893    132.83496    558.27831   0.92674444 
    9800    3113091.2    299.63334   -498.77441     175.5428    133.51503    132.82465    498.77441   0.92751855 
    9820      3113701    299.91816   -413.39458    175.61329     133.4867    132.82552    413.39458   0.92829265 
    9840    3113472.1    300.34544   -431.82377    175.68379    133.45933    132.78968    431.82377   0.92906676 
    9860    3114465.6    299.89978   -531.94468    175.75429     133.4324    132.80558    531.94468   0.92984086 
    9880      3116826    299.63194   -580.06702    175.82479    133.46835    132.81715    580.06702   0.93061496 
    9900    3117353.5    300.09454   -581.58888    175.89529    133.47584    132.77893    581.58888   0.93138907 
    9920    3116438.4     300.3894   -691.24319    175.96579    133.40146    132.76075    691.24319   0.93216317 
    9940      3117942    299.70538   -576.92291    176.03629    133.41764    132.75551    576.92291   0.93293728 
    9960    3119226.1    300.60269   -680.63092    176.10679    133.43505     132.7397    680.63092   0.93371138 
    9980    3119657.7    300.93243    -692.9719    176.17729     133.4043    132.73553     692.9719   0.93448548 
   10000    3119651.2    300.66038    -632.8277    176.24779    133.36023    132.72601     632.8277   0.93525959 
   10020    3121793.6    300.49591   -682.02522    176.31829    133.36511    132.75919    682.02522   0.93603369 
   10040    3120977.1    300.74471   -541.01796    176.38879      133.273    132.76312    541.01796   0.93680779 
   10060    3120445.5    301.38888   -683.83779    176.45928    133.22324    132.73704    683.83779    0.9375819 
   10080    3121291.4     300.7318   -711.11084    176.52978    133.19392    132.74921    711.11084     0.938356 
   10100    3122277.3    300.89566   -625.28552    176.60028    133.17455    132.75742    625.28552   0.93913011 
   10120    3122568.1    301.34701   -591.65766    176.67078    133.15741     132.7339    591.65766   0.93990421 
   10140    3122376.3    301.29961   -656.13794    176.74128    133.05839    132.77153    656.13794   0.94067831 
   10160      3123861    299.77591   -592.81177    176.81178    133.02962    132.81042    592.81177   0.94145242 
   10180    3123925.2    299.89809   -562.96786    176.88228    133.00038     132.7894    562.96786   0.94222652 
   10200    3122813.3    300.11355   -463.06947    176.95278    132.94062     132.7489    463.06947   0.94300063 
   10220      3124633    300.00329   -515.57358    177.02328    132.94335    132.77064    515.57358   0.94377473 
   10240    3127268.6    299.75963   -590.29394    177.09378    132.96344    132.80966    590.29394   0.94454883 
   10260    3126296.4    299.72857   -437.84033    177.16428    132.93148    132.74744    437.84033   0.94532294 
   10280    3126716.5    300.01791   -435.68721    177.23477    132.88193    132.76195    435.68721   0.94609704 
   10300    3128222.4    299.75027   -528.89843    177.30527    132.91968    132.73537    528.89843   0.94687114 
   10320    3128914.1    300.47723   -566.80321    177.37577    132.89424    132.73737    566.80321   0.94764525 
   10340    3128924.7    300.53742   -653.68175    177.44627    132.87173    132.70756    653.68175   0.94841935 
   10360    3130042.1    300.43959   -660.65659    177.51677    132.84065    132.73327    660.65659   0.94919346 
   10380    3131161.4    299.48832   -644.76933    177.58727     132.8448    132.72388    644.76933   0.94996756 
   10400    3131553.7    299.91145   -578.01344    177.65777    132.84004    132.69259    578.01344   0.95074166 
   10420    3132389.2    299.64338   -606.13541    177.72827    132.84445    132.67093    606.13541   0.95151577 
   10440    3133845.5    299.97699    -490.2937    177.79877    132.86688    132.65759     490.2937   0.95228987 
   10460      3134935     299.6154   -457.26588    177.86927      132.886    132.63203    457.26588   0.95306398 
   10480    3134007.2    300.08012   -368.14477    177.93977    132.86056    132.56562    368.14477   0.95383808 
   10500    3134700.8    299.87143   -378.35714    178.01026    132.80016    132.60273    378.35714   0.95461218 
   10520    3136531.8       300.51   -435.20761    178.08076    132.83474    132.59313    435.20761   0.95538629 
   10540    3138103.1    300.08247   -698.88354    178.15126    132.85268    132.58915    698.88354   0.95616039 
   10560      3138132    300.19534   -640.90401    178.22176    132.85011    132.54048    640.90401   0.95693449 
   10580    3139832.2    299.68773   -700.20449    178.29226    132.87897    132.53106    700.20449    0.9577086 
   10600    3140713.5    299.76783   -777.37632    178.36276    132.87372    132.52111    777.37632    0.9584827 
   10620    3140424.4    300.21661   -628.31207    178.43326    132.85299    132.47722    628.31207   0.95925681 
   10640    3140366.4    299.52201   -471.44561    178.50376    132.84892    132.42651    471.44561   0.96003091 
   10660    3141186.2    300.44858   -484.05402    178.57426    132.81881    132.43881    484.05402   0.96080501 
   10680    3142077.8    299.85692   -514.48441    178.64476    132.81126    132.43165    514.48441   0.96157912 
   10700    3141894.6    300.34261    -519.1308    178.71526    132.78325    132.39961     519.1308   0.96235322 
   10720    3143769.5    299.45883   -586.27623    178.78576    132.82141    132.38833    586.27623   0.96312733 
   10740      3144378    299.42033   -583.29129    178.85625    132.81533    132.36782    583.29129   0.96390143 
   10760    3145281.6    299.62942    -729.8523    178.92675    132.81528    132.35374     729.8523   0.96467553 
   10780    3145297.7    299.41242   -680.10823    178.99725    132.77733     132.3401    680.10823   0.96544964 
   10800    3146559.6    299.53932   -596.42521    179.06775    132.78499    132.33344    596.42521   0.96622374 
   10820    3146494.8    299.30456   -642.37363    179.13825    132.75671    132.30682    642.37363   0.96699784 
   10840    3146096.9    299.41822   -453.82996    179.20875    132.71835    132.27626    453.82996   0.96777195 
   10860    3145859.5    299.25971    -443.2541    179.27925    132.70126     132.2313     443.2541   0.96854605 
   10880    3146791.6    299.54203   -530.30979    179.34975    132.68296    132.23671    530.30979   0.96932016 
   10900    3147978.2    299.65275   -449.25007    179.42025    132.68445    132.23311    449.25007   0.97009426 
   10920    3148067.7    300.24771   -491.39928    179.49075    132.64998    132.21928    491.39928   0.97086836 
   10940    3148351.3    300.20132   -489.20587    179.56125    132.68493    132.14446    489.20587   0.97164247 
   10960    3148689.1     299.5703   -464.50736    179.63174    132.64781    132.14374    464.50736   0.97241657 
   10980    3150990.9    299.81301   -697.36722    179.70224    132.66722    132.16913    697.36722   0.97319067 
   11000    3150704.1     300.6315    -634.4228    179.77274    132.64647    132.12594     634.4228   0.97396478 
   11020    3150405.4    300.28636   -463.25726    179.84324    132.65955     132.0486    463.25726   0.97473888 
   11040    3149499.7    300.68279   -572.15795    179.91374    132.62719    131.99111    572.15795   0.97551299 
   11060    3150982.5      301.127   -541.51922    179.98424    132.62484    132.00386    541.51922   0.97628709 
   11080      3151177    301.03982   -620.73968    180.05474    132.62779    131.95738    620.73968   0.97706119 
   11100    3152447.9    300.70223   -564.41754    180.12524    132.65714    131.92974    564.41754    0.9778353 
   11120    3153246.8    300.41919   -554.62017    180.19574    132.65771    131.91098    554.62017    0.9786094 
   11140    3153133.2    300.26825   -668.27903    180.26624    132.61847    131.89366    668.27903   0.97938351 
   11160    3153423.6    300.70703   -531.40241    180.33674    132.64362    131.82924    531.40241   0.98015761 
   11180    3153463.6    300.01927   -623.81796    180.40723    132.61673    131.80611    623.81796   0.98093171 
   11200    3153307.4    300.00038   -545.56546    180.47773     132.5482    131.81621    545.56546   0.98170582 
   11220    3153587.8    300.22718   -454.81787    180.54823    132.53556    131.78903    454.81787   0.98247992 
   11240    3155584.2    300.27039   -437.78587    180.61873    132.55499    131.80167    437.78587   0.98325402 
   11260    3155567.2    300.31644   -442.52484    180.68923    132.52301    131.78132    442.52484   0.98402813 
   11280    3156637.1    299.07892   -459.73336    180.75973    132.52965    131.76799    459.73336   0.98480223 
   11300    3156193.5    299.63064   -382.15004    180.83023    132.47336    131.75407    382.15004   0.98557634 
   11320    3156868.7    299.65444   -412.87008    180.90073    132.46781    131.73642    412.87008   0.98635044 
   11340    3157300.3    300.30504   -225.73416    180.97123    132.46548    131.70541    225.73416   0.98712454 
   11360      3157709    299.21578   -551.45809    181.04173     132.4533    131.68328    551.45809   0.98789865 
   11380    3159623.3    299.98018   -546.61326    181.11223    132.46558    131.69961    546.61326   0.98867275 
   11400    3160431.2    299.58037   -471.37067    181.18272    132.44355    131.70393    471.37067   0.98944686 
   11420    3159941.6    300.42349   -421.96785    181.25322    132.41928    131.65644    421.96785   0.99022096 
   11440    3159889.4    299.75464   -351.21587    181.32372    132.38746    131.63471    351.21587   0.99099506 
   11460    3162416.2    300.61288   -561.29325    181.39422    132.40579    131.67054    561.29325   0.99176917 
   11480    3163487.5     300.3413   -559.60157    181.46472    132.39147    131.67821    559.60157   0.99254327 
   11500    3164639.6    299.54068   -664.26155    181.53522    132.43053    131.63617    664.26155   0.99331737 
   11520    3164443.5    299.40308   -453.68513    181.60572    132.40565    131.60164    453.68513   0.99409148 
   11540    3165691.6     299.6715   -456.10453    181.67622    132.38948    131.61853    456.10453   0.99486558 
   11560    3166278.8    299.70986   -439.27009    181.74672      132.362     131.6192    439.27009   0.99563969 
   11580    3167981.4     299.9232   -421.42256    181.81722    132.35357     131.6473    421.42256   0.99641379 
   11600    3167531.8    299.95982   -392.69337    181.88772    132.34147    131.58963    392.69337   0.99718789 
   11620    3167802.2    299.90594   -346.58078    181.95822    132.32769    131.56358    346.58078     0.997962 
   11640    3169486.6    300.22658   -544.21624    182.02871    132.31889     131.5913    544.21624    0.9987361 
   11660    3169855.8    299.70326    -608.7852    182.09921    132.31377    131.56076     608.7852   0.99951021 
   11680    3170132.6    299.59648   -670.42123    182.16971    132.26287    131.57195    670.42123    1.0002843 
   11700    3169643.5     300.1288   -569.62301    182.24021    132.21982    131.54358    569.62301    1.0010584 
   11720    3170960.8    299.77628   -576.13034    182.31071    132.21361    131.55353    576.13034    1.0018325 
   11740    3171280.4    299.75725   -448.27013    182.38121    132.20158     131.5279    448.27013    1.0026066 
   11760    3172370.3    299.48058   -433.90019    182.45171    132.16001    131.56363    433.90019    1.0033807 
   11780    3172400.7    299.44313   -420.06524    182.52221     132.1164     131.5575    420.06524    1.0041548 
   11800    3173252.9    299.55572   -553.32607    182.59271     132.1419    131.51664    553.32607    1.0049289 
   11820      3174267    299.43806   -656.53326    182.66321    132.11585    131.53382    656.53326     1.005703 
   11840    3174231.6    299.27781   -558.57286    182.73371    132.07063    131.52663    558.57286    1.0064771 
   11860    3174228.9     299.8181   -592.22557     182.8042    132.05397    131.49238    592.22557    1.0072512 
   11880    3176070.8     299.7579   -622.11323     182.8747    132.04719    131.52471    622.11323    1.0080253 
   11900    3176380.2     299.6095   -635.82105     182.9452    131.99897    131.53487    635.82105    1.0087995 
   11920    3177921.2    299.55742   -493.25429     183.0157    131.98721    131.55972    493.25429    1.0095736 
   11940    3178747.5    299.17045   -470.63481     183.0862    131.98133    131.54911    470.63481    1.0103477 
   11960    3178474.2    298.88864    -431.0391     183.1567    131.95456    131.51385     431.0391    1.0111218 
   11980    3180718.6      299.205   -465.23587     183.2272     131.9416    131.56899    465.23587    1.0118959 
   12000    3181281.4    299.44194   -691.68339     183.2977    131.96521    131.51813    691.68339      1.01267 
   12020    3182416.1    298.77108   -617.97101     183.3682    131.94503    131.53457    617.97101    1.0134441 
   12040    3182054.2    298.98592    -812.8826     183.4387     131.8687    131.54516     812.8826    1.0142182 
   12060    3182371.8    300.07498   -614.78677     183.5092    131.87296    131.50351    614.78677    1.0149923 
   12080    3183310.6     299.4111   -612.11802    183.57969    131.91841    131.44648    612.11802    1.0157664 
   12100    3184540.4     299.9665   -684.29684    183.65019    131.89032    131.47478    684.29684    1.0165405 
   12120    3184891.3    299.82333   -587.70708    183.72069    131.86853    131.46052    587.70708    1.0173146 
   12140    3185737.2    300.82735   -573.22012    183.79119    131.87663    131.43693    573.22012    1.0180887 
   12160    3186509.7    300.52722   -609.85788    183.86169    131.86265    131.43233    609.85788    1.0188628 
   12180    3186971.6       300.26   -639.50415    183.93219    131.83419    131.42936    639.50415    1.0196369 
   12200    3187726.7    300.88681   -573.82043    184.00269    131.83491    131.40942    573.82043     1.020411 
   12220    3188717.8    301.06496   -603.18186    184.07319     131.7878     131.4469    603.18186    1.0211851 
   12240    3190223.1    300.52024    -594.5908    184.14369    131.76157    131.48477     594.5908    1.0219592 
   12260    3190058.9    299.93973   -578.88609    184.21419    131.81767    131.37176    578.88609    1.0227333 
   12280    3190270.9    300.35929   -564.70801    184.28469    131.76973      131.378    564.70801    1.0235074 
   12300    3190594.9    300.27985   -468.07584    184.35519     131.7524    131.35838    468.07584    1.0242815 
   12320    3191891.4    300.45317   -664.49855    184.42568    131.77097    131.34301    664.49855    1.0250556 
   12340    3191670.1    299.51186    -686.6996    184.49618    131.71158    131.34291     686.6996    1.0258297 
   12360    3192576.5     300.7711   -632.69635    184.56668    131.69957    131.34201    632.69635    1.0266038 
   12380    3193749.1    300.37202   -744.34049    184.63718    131.70665    131.33302    744.34049    1.0273779 
   12400    3193989.8     300.9393   -583.27027    184.70768    131.65345    131.34584    583.27027     1.028152 
   12420    3193511.6    299.58141    -525.5069    184.77818    131.58282    131.34654     525.5069    1.0289262 
   12440    3194983.8    299.88823   -667.29064    184.84868    131.56852    131.37124    667.29064    1.0297003 
   12460    3195949.5    299.60377   -622.60721    184.91918    131.55705    131.37231    622.60721    1.0304744 
   12480    3195394.6    299.67248   -622.42534    184.98968    131.50586    131.35055    622.42534    1.0312485 
   12500    3195796.4    299.88981   -554.82138    185.06018    131.49442    131.32845    554.82138    1.0320226 
   12520    3195899.1    300.34495   -463.88211    185.13068    131.48435    131.29271    463.88211    1.0327967 
   12540    3197564.4     300.3877    -596.0235    185.20117    131.47259    131.32287     596.0235    1.0335708 
   12560    3197505.7    300.78904      -491.85    185.27167    131.46498    131.27809       491.85    1.0343449 
   12580      3196261    301.14897   -333.79247    185.34217    131.40622    131.23572    333.79247     1.035119 
   12600    3197001.2    300.33888   -352.02316    185.41267     131.3966    131.22581    352.02316    1.0358931 
   12620    3198524.7    300.11559   -505.71464    185.48317    131.39285    131.24219    505.71464    1.0366672 
   12640    3199350.2    300.77313   -550.80532    185.55367     131.4139    131.20516    550.80532    1.0374413 
   12660    3199369.5    300.09616   -523.90938    185.62417    131.38263    131.18734    523.90938    1.0382154 
   12680    3198083.6    300.77741   -472.50762    185.69467    131.32993    131.13743    472.50762    1.0389895 
   12700    3197891.7    299.56741   -414.13392    185.76517    131.29161    131.11805    414.13392    1.0397636 
   12720    3198947.4    299.63534   -507.76174    185.83567    131.28592    131.11726    507.76174    1.0405377 
   12740    3199494.1    300.65771   -348.71394    185.90617    131.25521    131.12061    348.71394    1.0413118 
   12760    3199185.7    300.31232   -417.19723    185.97666    131.29038    131.02316    417.19723    1.0420859 
   12780    3200045.1    300.09588    -505.9652    186.04716    131.27503    131.02402     505.9652      1.04286 
   12800    3201713.3     299.9431   -649.00631    186.11766    131.25248    131.06519    649.00631    1.0436341 
   12820    3200548.5    299.54416    -824.5581    186.18816    131.25787    130.96251     824.5581    1.0444082 
   12840    3201369.3    300.32724     -696.096    186.25866    131.25271    130.95166      696.096    1.0451823 
   12860    3201293.6    299.86013   -682.85062    186.32916    131.20169    130.94992    682.85062    1.0459564 
   12880    3202716.9     300.1507   -573.98919    186.39966    131.20137    130.95892    573.98919    1.0467305 
   12900    3203947.1    299.94476   -592.41777    186.47016    131.23836    130.92277    592.41777    1.0475046 
   12920    3204217.7    300.11406   -500.45003    186.54066    131.22397     130.8987    500.45003    1.0482787 
   12940    3204369.3    300.03696   -280.14062    186.61116     131.2128    130.86658    280.14062    1.0490529 
   12960    3205884.7    300.87362   -505.16278    186.68166    131.25006    130.84187    505.16278     1.049827 
   12980    3206395.7    300.15013   -425.47398    186.75216    131.25023    130.81316    425.47398    1.0506011 
   13000    3206167.5    299.40943   -566.25776    186.82265    131.22685    130.77778    566.25776    1.0513752 
   13020    3208145.7    300.13781   -640.49422    186.89315    131.23641    130.79958    640.49422    1.0521493 
[...]
   36740      3761952    299.31603   -546.35775     270.5051    118.62911    117.23209    546.35775    1.9702364 
   36760    3761877.9    300.66961   -456.10996     270.5756    118.56628    117.26134    456.10996    1.9710105 
   36780    3761333.6    299.98458   -368.78812     270.6461    118.52504    117.25462    368.78812    1.9717846 
   36800    3763698.3    300.50957   -423.44012     270.7166    118.53212    117.29077    423.44012    1.9725587 
   36820    3763934.2     299.7209   -379.10702     270.7871    118.46238    117.33662    379.10702    1.9733328 
   36840    3764189.7    299.81138   -350.42178     270.8576    118.42237    117.35369    350.42178    1.9741069 
   36860    3764145.8     299.3276   -236.05793     270.9281    118.42655    117.31763    236.05793     1.974881 
   36880    3763955.4    299.58158   -211.02278     270.9986    118.38548    117.32187    211.02278    1.9756551 
   36900    3765206.9    299.60479   -204.25384     271.0691    118.39317    117.32274    204.25384    1.9764292 
   36920    3765170.2    299.98762   -287.65577     271.1396    118.35011    117.33377    287.65577    1.9772033 
   36940    3765856.3    299.47102   -222.24679    271.21009    118.34503    117.32967    222.24679    1.9779775 
   36960    3766768.3    300.37386    -454.8797    271.28059    118.28937     117.3828     454.8797    1.9787516 
   36980    3766577.2    300.17988   -467.82344    271.35109    118.30179    117.33402    467.82344    1.9795257 
   37000      3766420    300.05327   -452.75345    271.42159    118.32214    117.27848    452.75345    1.9802998 
   37020    3765523.2    299.68232   -306.40882    271.49209     118.2705    117.27129    306.40882    1.9810739 
   37040    3765776.7    300.33776   -318.86838    271.56259    118.26424    117.25495    318.86838     1.981848 
   37060    3765620.8    299.80182   -361.22258    271.63309    118.23065    117.25296    361.22258    1.9826221 
   37080    3765585.8    300.67136   -315.18891    271.70359    118.22415     117.2279    315.18891    1.9833962 
   37100    3766292.3    300.18076   -321.23423    271.77409    118.23412     117.2096    321.23423    1.9841703 
   37120    3765923.4    300.89183   -404.33352    271.84459    118.18876    117.21268    404.33352    1.9849444 
   37140    3766606.8    300.65092   -383.87791    271.91509    118.16001    117.23208    383.87791    1.9857185 
   37160    3767898.8    300.53588   -492.71655    271.98558    118.19525    117.20693    492.71655    1.9864926 
   37180    3767736.6    299.94567   -470.03283    272.05608    118.13555    117.23074    470.03283    1.9872667 
   37200    3767423.5    300.09568   -484.69962    272.12658    118.14186    117.18437    484.69962    1.9880408 
   37220    3767616.3    299.79902   -439.88815    272.19708    118.14335    117.15853    439.88815    1.9888149 
   37240    3767415.5    300.22098   -438.37971    272.26758    118.17153    117.09402    438.37971     1.989589 
   37260    3768566.7    300.64407   -490.03273    272.33808    118.21351    117.05789    490.03273    1.9903631 
   37280    3768816.7    299.52353   -487.24572    272.40858    118.23102    117.01803    487.24572    1.9911372 
   37300    3769872.6    299.80655   -488.41808    272.47908    118.24011    117.01154    488.41808    1.9919113 
   37320    3770395.1    299.92095   -419.15156    272.54958      118.227    117.01046    419.15156    1.9926854 
   37340    3768930.9    300.66841   -287.65661    272.62008     118.1914       116.97    287.65661    1.9934595 
   37360    3769984.9     300.3487   -233.49614    272.69058    118.18114    116.98261    233.49614    1.9942336 
   37380    3771193.3     299.7592   -155.91232    272.76108    118.20455     116.9667    155.91232    1.9950077 
   37400    3772145.2    299.29292   -196.37675    272.83157    118.21489    116.95575    196.37675    1.9957818 
   37420    3772420.7    300.27289   -307.99905    272.90207    118.24032    116.90893    307.99905    1.9965559 
   37440    3772209.8    299.35942   -388.31444    272.97257    118.19947     116.9126    388.31444      1.99733 
   37460    3772728.3    299.27606   -341.82085    273.04307    118.18224    116.91551    341.82085    1.9981042 
   37480    3772607.1    300.14644   -326.82625    273.11357    118.18759    116.87629    326.82625    1.9988783 
   37500    3772338.8    300.31148   -264.32701    273.18407    118.19726    116.82826    264.32701    1.9996524 
   37520    3773594.2    300.30485   -191.87959    273.25457    118.18042    116.85363    191.87959    2.0004265 
   37540    3773355.2    299.15111    -189.6207    273.32507    118.16961    116.82678     189.6207    2.0012006 
   37560    3773587.4    299.64845    -224.7693    273.39557     118.1707    116.80277     224.7693    2.0019747 
   37580    3775419.4    299.79512   -343.13116    273.46607    118.19037     116.8099    343.13116    2.0027488 
   37600    3776336.8    299.94282   -348.41222    273.53657    118.20174    116.79694    348.41222    2.0035229 
   37620    3776769.6    299.59555   -463.94646    273.60706     118.2201    116.76209    463.94646     2.004297 
   37640    3777573.6    300.20788   -490.51108    273.67756     118.1906      116.786    490.51108    2.0050711 
   37660    3779096.3    300.07879   -483.69645    273.74806    118.20831    116.78549    483.69645    2.0058452 
   37680    3779957.2    300.24105   -522.99044    273.81856     118.2436    116.74717    522.99044    2.0066193 
   37700    3778817.8    300.11982   -427.60794    273.88906    118.20398    116.72104    427.60794    2.0073934 
   37720    3778774.1    300.62122   -310.49445    273.95956    118.20894    116.68476    310.49445    2.0081675 
   37740    3780317.3    300.99617    -417.7505    274.03006    118.23729    116.67441     417.7505    2.0089416 
   37760    3781893.6    300.43728   -457.43528    274.10056    118.28458    116.64638    457.43528    2.0097157 
   37780    3781200.2    300.55471   -433.32327    274.17106    118.24439    116.63463    433.32327    2.0104898 
   37800      3780466    300.68616   -372.07964    274.24156    118.20591    116.61996    372.07964    2.0112639 
   37820    3781571.2    300.46662   -412.26177    274.31206    118.18901    116.64075    412.26177     2.012038 
   37840    3782634.8    300.27607   -415.21623    274.38255    118.18943    116.64316    415.21623    2.0128121 
   37860    3783449.2    300.62037   -456.97358    274.45305    118.17484    116.65271    456.97358    2.0135862 
   37880    3785488.8     300.6709   -481.47266    274.52355    118.18541    116.67518    481.47266    2.0143603 
   37900    3786559.7    300.41991   -540.61317    274.59405    118.18242    116.68117    540.61317    2.0151344 
   37920    3785293.8    300.23327   -496.57102    274.66455    118.12824    116.66571    496.57102    2.0159085 
   37940    3784783.9    299.46399   -488.20232    274.73505    118.11507    116.63307    488.20232    2.0166826 
   37960    3786204.7     299.7611   -461.68949    274.80555    118.11906    116.64298    461.68949    2.0174567 
   37980    3786469.6    299.77134    -472.5789    274.87605    118.05999    116.67957     472.5789    2.0182309 
   38000    3786127.9    299.41516   -396.56788    274.94655    118.03859    116.66027    396.56788     2.019005 
   38020    3786394.8    299.51564   -466.26617    275.01705    118.05394    116.62342    466.26617    2.0197791 
   38040    3787921.1    299.68528   -558.09286    275.08755    118.02996    116.66423    558.09286    2.0205532 
   38060      3788361    299.68864   -556.78561    275.15804    117.98856    116.68882    556.78561    2.0213273 
   38080    3787557.1    299.87123   -565.39345    275.22854    117.95578    116.66659    565.39345    2.0221014 
   38100    3788186.9     300.2208   -434.43215    275.29904    117.95603    116.65586    434.43215    2.0228755 
   38120    3788158.2    299.89239   -442.72724    275.36954    117.92307    116.65771    442.72724    2.0236496 
   38140    3788873.7    299.90573   -401.44154    275.44004    117.94663    116.62658    401.44154    2.0244237 
   38160    3790701.9    299.97279   -417.75415    275.51054    117.94876    116.65088    417.75415    2.0251978 
   38180      3790000    299.88322   -383.37208    275.58104    117.93034    116.61766    383.37208    2.0259719 
   38200    3788954.8     299.1813   -255.95906    275.65154    117.87632     116.6091    255.95906     2.026746 
   38220    3789600.6    299.99228   -279.52648    275.72204    117.82944    116.64554    279.52648    2.0275201 
   38240    3790960.4    300.29617   -375.69632    275.79254    117.80785    116.67895    375.69632    2.0282942 
   38260    3791612.1    300.35519   -408.92902    275.86304    117.76606    116.71058    408.92902    2.0290683 
   38280    3790417.5    299.35677   -441.26553    275.93354     117.7175    116.69212    441.26553    2.0298424 
   38300    3791638.7    299.02737   -454.67055    276.00403    117.68854    116.72862    454.67055    2.0306165 
   38320    3792476.7    298.75259   -512.60779    276.07453    117.66036    116.75255    512.60779    2.0313906 
   38340    3793037.3    298.80249   -546.16583    276.14503    117.65106    116.74923    546.16583    2.0321647 
   38360    3794371.1    299.45025   -536.17116    276.21553    117.67741    116.73433    536.17116    2.0329388 
   38380    3793526.5    299.15494   -452.91833    276.28603    117.61613    116.73936    452.91833    2.0337129 
   38400    3794684.9     299.1529   -457.48121    276.35653    117.60638     116.7549    457.48121     2.034487 
   38420      3795661    299.14671   -610.28041    276.42703    117.60945     116.7521    610.28041    2.0352611 
   38440    3796873.1    300.05366    -557.8606    276.49753    117.62561    116.74356     557.8606    2.0360352 
   38460    3796498.5    299.58638   -480.68212    276.56803     117.5729    116.75461    480.68212    2.0368093 
   38480      3797345    299.74828   -533.84478    276.63853    117.59561    116.72833    533.84478    2.0375834 
   38500    3799572.2     299.6092   -489.71448    276.70903    117.62092    116.74192    489.71448    2.0383576 
   38520    3799311.5    299.97981   -527.14059    276.77952    117.57219    116.75253    527.14059    2.0391317 
   38540    3798806.8    300.27969    -439.8227    276.85002    117.57664    116.70288     439.8227    2.0399058 
   38560    3800300.6    300.13791   -490.31844    276.92052    117.56535    116.73026    490.31844    2.0406799 
   38580      3801346    300.24837   -511.84543    276.99102    117.55594      116.742    511.84543     2.041454 
   38600    3800628.2    301.08761   -521.97996    277.06152    117.51477    116.73114    521.97996    2.0422281 
   38620    3800373.5    300.72516   -610.21513    277.13202    117.49779    116.71048    610.21513    2.0430022 
   38640    3800984.8    300.58166   -500.72973    277.20252    117.50289     116.6945    500.72973    2.0437763 
   38660    3801598.3    301.28435   -476.16588    277.27302    117.51618    116.67047    476.16588    2.0445504 
   38680    3800601.7    300.85162   -378.63599    277.34352     117.5093    116.61706    378.63599    2.0453245 
   38700    3800911.6    300.34944   -241.85197    277.41402    117.48105    116.62497    241.85197    2.0460986 
   38720    3804089.7    300.23244   -275.25232    277.48452    117.49231    116.68164    275.25232    2.0468727 
   38740    3804346.1    300.46755   -438.27591    277.55501     117.4414    116.71045    438.27591    2.0476468 
   38760    3803979.8    300.56364   -384.00834    277.62551    117.37401    116.73656    384.00834    2.0484209 
   38780    3806523.7    300.54826   -467.88493    277.69601    117.37041    116.78855    467.88493     2.049195 
   38800    3806925.9    300.98237   -506.68377    277.76651    117.40448    116.73736    506.68377    2.0499691 
   38820    3806897.3    300.03092   -404.41768    277.83701    117.38015    116.73105    404.41768    2.0507432 
   38840    3807016.7    299.63988   -442.81483    277.90751    117.33968    116.74536    442.81483    2.0515173 
   38860    3807699.5    300.41639   -300.86231    277.97801    117.31229    116.76394    300.86231    2.0522914 
   38880    3808586.4    300.10851   -357.85905    278.04851    117.31376    116.76005    357.85905    2.0530655 
   38900    3808490.1    299.78657   -538.37744    278.11901    117.30037    116.74084    538.37744    2.0538396 
   38920    3811217.9    299.91981   -408.86591    278.18951     117.2729     116.8222    408.86591    2.0546137 
   38940    3812400.9    300.15434   -480.77989    278.26001    117.22927    116.87234    480.77989    2.0553878 
   38960    3811368.6    299.68402   -513.88806    278.33051     117.2109     116.8294    513.88806    2.0561619 
   38980    3811514.5    299.78179   -432.55775      278.401    117.21824    116.79698    432.55775     2.056936 
   39000    3812489.3    300.01934   -515.79444     278.4715    117.23015     116.7854    515.79444    2.0577101 
   39020    3812713.8    299.99343   -563.88903      278.542    117.21524    116.77757    563.88903    2.0584843 
   39040    3812150.4    300.31123   -465.54982     278.6125    117.15314    116.79264    465.54982    2.0592584 
   39060    3812832.4    299.93135    -446.0388      278.683    117.17652    116.76069     446.0388    2.0600325 
   39080    3813112.6    301.31086   -392.38919     278.7535    117.17655     116.7397    392.38919    2.0608066 
   39100      3812109    300.55316   -373.40909      278.824     117.1731    116.68291    373.40909    2.0615807 
   39120    3813431.5     299.3973   -492.50658     278.8945    117.22319    116.64401    492.50658    2.0623548 
   39140    3814950.1    299.17645   -452.21664      278.965    117.24591    116.63837    452.21664    2.0631289 
   39160    3813989.8    299.13665    -512.9579     279.0355     117.2221    116.60323     512.9579     2.063903 
   39180    3814182.6     299.6098   -532.16872      279.106    117.21433     116.5874    532.16872    2.0646771 
   39200    3815882.4    299.38432   -469.15464    279.17649    117.22058    116.60369    469.15464    2.0654512 
   39220    3816864.3    299.39465   -426.67558    279.24699    117.23504    116.58985    426.67558    2.0662253 
   39240      3815446    299.68875   -342.15879    279.31749    117.24151    116.51069    342.15879    2.0669994 
   39260      3815817     299.6246   -293.36322    279.38799    117.22347    116.51055    293.36322    2.0677735 
   39280    3818098.7     300.4261   -265.83991    279.45849    117.26026    116.51423    265.83991    2.0685476 
   39300    3820239.2    299.60328   -390.51089    279.52899    117.30396    116.50673    390.51089    2.0693217 
   39320    3820255.6    299.15629   -344.65834    279.59949    117.23673    116.54466    344.65834    2.0700958 
   39340    3819781.1     300.4327   -376.10461    279.66999    117.21286    116.52453    376.10461    2.0708699 
   39360    3819047.2    299.87299    -272.6822    279.74049    117.22466    116.46105     272.6822     2.071644 
   39380    3819052.6     299.7045   -436.47332    279.81099    117.23169     116.4249    436.47332    2.0724181 
   39400    3819968.6    300.07873    -387.9816    279.88149    117.19259    116.46232     387.9816    2.0731922 
   39420    3820590.6    300.42728   -329.01028    279.95198    117.17008    116.47433    329.01028    2.0739663 
   39440    3820863.5    300.05497   -427.76831    280.02248    117.17698    116.44647    427.76831    2.0747404 
   39460    3821488.6    299.99989   -332.35487    280.09298    117.14628    116.46672    332.35487    2.0755145 
   39480    3824459.1    299.84904   -382.30987    280.16348    117.19497    116.47951    382.30987    2.0762886 
   39500    3823984.1    299.51223   -336.59066    280.23398    117.18998     116.4407    336.59066    2.0770627 
   39520      3823778    300.67441   -286.24903    280.30448    117.13702    116.45777    286.24903    2.0778368 
   39540    3826183.9     299.7792   -350.88127    280.37498     117.1862    116.45285    350.88127     2.078611 
   39560    3827578.7    300.43188   -278.22668    280.44548    117.23012    116.42238    278.22668    2.0793851 
   39580    3825676.9     300.6888   -342.00689    280.51598    117.17304    116.39196    342.00689    2.0801592 
   39600    3826010.1    300.82543   -341.50121    280.58648    117.15391    116.39185    341.50121    2.0809333 
   39620    3828001.6    299.77389    -461.8185    280.65698    117.16048    116.41665     461.8185    2.0817074 
   39640    3828653.1     300.1048   -549.02864    280.72748    117.13854    116.42903    549.02864    2.0824815 
   39660    3827367.5    299.66398    -548.3569    280.79797    117.10693    116.39213     548.3569    2.0832556 
   39680    3828901.4    299.51153   -495.01988    280.86847    117.11848    116.39806    495.01988    2.0840297 
   39700    3831210.4     299.5197   -461.19795    280.93897    117.14171    116.41594    461.19795    2.0848038 
   39720    3830286.7    299.93244   -425.90413    281.00947    117.07679     116.4232    425.90413    2.0855779 
   39740    3829912.6    299.59892   -291.47041    281.07997    117.07936    116.38007    291.47041     2.086352 
   39760    3830953.1    299.73044   -281.63499    281.15047    117.08373    116.37816    281.63499    2.0871261 
   39780    3832330.6    299.86832   -316.50514    281.22097    117.07837    116.39614    316.50514    2.0879002 
   39800    3832522.9    299.56104   -405.47303    281.29147    117.04628    116.40472    405.47303    2.0886743 
   39820    3833357.7     299.4515    -436.5785    281.36197    117.06037    116.38689     436.5785    2.0894484 
   39840    3834355.1    299.61458    -352.0649    281.43247    117.05437    116.39398     352.0649    2.0902225 
   39860      3835005    299.57342   -482.14962    281.50297    117.04223    116.39663    482.14962    2.0909966 
   39880    3835019.3    299.72102    -409.2846    281.57346    117.01319    116.39679     409.2846    2.0917707 
   39900    3835780.8    300.14596   -521.87359    281.64396    116.98087    116.42292    521.87359    2.0925448 
   39920    3835922.6    300.48922   -476.00113    281.71446    116.96728    116.41161    476.00113    2.0933189 
   39940    3835443.8    300.08285   -439.17846    281.78496    116.95641    116.37877    439.17846     2.094093 
   39960    3836869.8    300.04493   -323.73146    281.85546    116.98973    116.35978    323.73146    2.0948671 
   39980    3837461.5    300.09897     -325.739    281.92596    116.98225    116.35606      325.739    2.0956412 
   40000    3837190.5    300.05924   -370.27956    281.99646    116.95019    116.35064    370.27956    2.0964153 
Loop time of 5346.9 on 64 procs for 40000 steps with 212040 atoms

Performance: 0.646 ns/day, 37.131 hours/ns, 7.481 timesteps/s
99.8% CPU use with 64 MPI tasks x 1 OpenMP threads

MPI task timing breakdown:
Section |  min time  |  avg time  |  max time  |%varavg| %total
---------------------------------------------------------------
Pair    | 1030.6     | 1695.1     | 2099.4     | 519.1 | 31.70
Bond    | 115.26     | 157.57     | 176.55     | 103.1 |  2.95
Kspace  | 163.82     | 586.71     | 1294       | 935.2 | 10.97
Neigh   | 2762.9     | 2768.6     | 2773.9     |   6.9 | 51.78
Comm    | 91.513     | 102.73     | 111.42     |  48.3 |  1.92
Output  | 1.7506     | 1.8329     | 1.9031     |   2.8 |  0.03
Modify  | 26.295     | 30.182     | 36.815     |  39.7 |  0.56
Other   |            | 4.168      |            |       |  0.08

Nlocal:        3313.12 ave        4109 max        1265 min
Histogram: 1 3 4 3 3 1 5 9 18 17
Nghost:        17972.2 ave       21723 max       12774 min
Histogram: 9 7 0 0 0 7 16 7 8 10
Neighs:    1.71475e+06 ave  2.4173e+06 max      350094 min
Histogram: 2 4 5 3 2 2 5 17 12 12

Total # of neighbors = 1.0974399e+08
Ave neighs/atom = 517.56266
Ave special neighs/atom = 5.9990568
Neighbor list builds = 40000
Dangerous builds not checked
Total wall time: 1:29:11
