LAMMPS (29 Oct 2020)
OMP_NUM_THREADS environment is not set. Defaulting to 1 thread. (../comm.cpp:94)
  using 1 OpenMP thread(s) per MPI task
####################################################
#    This program is free software: you can redistribute it and/or modify
#    it under the terms of the GNU General Public License as published by
#    the Free Software Foundation, either version 3 of the License, or
#    (at your option) any later version.
#
#    This program is distributed in the hope that it will be useful,
#    but WITHOUT ANY WARRANTY; without even the implied warranty of
#    MERCHANTABILITY or FITNESS FOR A PARTICULAR PURPOSE.  See the
#    GNU General Public License for more details.


units		real        ## defines the units style used herein. More information: https://docs.lammps.org/units.html
atom_style	full        ## defines the atom style used herein. More information: https://docs.lammps.org/atom_style.html

# Styles
pair_style      lj/cut/coul/long 15.0 10.0      ## sets the formula(s) LAMMPS uses to compute pairwise interactions; here, lennard-jones (LJ) with long-range Coulomb interaction. More: https://docs.lammps.org/pair_lj_cut_coul.html
pair_modify     shift no                        ## the shift keyword determines whether a Lennard-Jones potential is shifted at its cutoff to 0.0. More: https://docs.lammps.org/pair_modify.html
kspace_style    pppm 1.0e-4                     ## defines a long-range solver for LAMMPS to compute long-range Coulombic interactions. Note: requires use of a matching pair style, i.e. PPPM with coul/long. More: https://docs.lammps.org/kspace_style.html
bond_style      harmonic                        ## defined based off the forcefield used to construct the system; models the atoms' interactions
angle_style     harmonic
dihedral_style  opls
improper_style  cvff
special_bonds   lj 0 0 1 coul 0 0 1

read_data       300K_TRP.lmps      ## input lammps datafile, equilibriated until structure nears experimental properties
Reading data file ...
  orthogonal box = (229.50089 229.50089 229.50089) to (370.49911 370.49911 370.49911)
  4 by 4 by 4 MPI processor grid
  reading atoms ...
  212040 atoms
  reading velocities ...
  212040 velocities
  scanning bonds ...
  2 = max bonds/atom
  scanning angles ...
  6 = max angles/atom
  scanning dihedrals ...
  15 = max dihedrals/atom
  scanning impropers ...
  2 = max impropers/atom
  reading bonds ...
  236020 bonds
  reading angles ...
  399920 angles
  reading dihedrals ...
  615800 dihedrals
  reading impropers ...
  127960 impropers
Finding 1-2 1-3 1-4 neighbors ...
  special bond factors lj:    0.0      0.0      1.0     
  special bond factors coul:  0.0      0.0      1.0     
     4 = max # of 1-2 neighbors
    10 = max # of 1-3 neighbors
    14 = max # of special neighbors
  special bonds CPU = 1.688 seconds
  read_data CPU = 3.699 seconds

dielectric      1.0
neighbor    	1.0 bin
neigh_modify	delay 0 every 1 check no        ## this is to make sure that the neighbor list is updated every timestep, and the atoms don't get lost as the system is being deformed ##

timestep	    1.0                             ## unit = fs, per "real" unit style
run_style       verlet                          ## defines algorithm used for simulation computation; verlet integration is a numerical method used to integrate Newton's equations of motion.

variable stress equal press*-1                         ## computes stress as the negative of press values
variable engStrain equal (lx-91.07191)/91.07191      ## computes engineering strain; lx_0 must be found and inputted manually (for now)

thermo		    20                                                               ## output log data (headers in thermo_style), recorded at every timestep in numList.txt
thermo_style    custom step vol temp press lx ly lz v_stress v_engStrain         ## data headers of output log file. More: https://docs.lammps.org/thermo_style.html

################# Deformation ##################

fix 1 all npt temp 300 300 100 y 1 1 100.0 z 1 1 100.0      ## stress normal to the x direction can vary; external pressure (y and z) = 1atm ##

fix 2 all deform 1 x scale 2.0 remap x                      ## sets a uniaxial (x-direction) deformation in motion, scaling a set amount (here, 4.0x) the initial length


################# Dumping ##################

reset_timestep 0

dump dump2 all custom 4000 sim.lammpstrj id mol type q xs ys zs ix iy iz

restart 8000 PMP.restart

run 		80000              ## this depends on the overall strain rate, where strain rate = deformScale / runTimeSteps (consider units!)
PPPM initialization ...
WARNING: System is not charge neutral, net charge = 0.034008 (../kspace.cpp:313)
  using 12-bit tables for long-range coulomb (../kspace.cpp:328)
  G vector (1/distance) = 0.19909148
  grid = 36 36 36
  stencil order = 5
  estimated absolute RMS force accuracy = 0.041605583
  estimated relative force accuracy = 0.00012529398
  using double precision FFTW3
  3d grid and FFT values/proc = 2744 900
Neighbor list info ...
  update every 1 steps, delay 0 steps, check no
  max neighbors/atom: 2000, page size: 100000
  master list distance cutoff = 16
  ghost atom cutoff = 16
  binsize = 8, bins = 18 18 18
  1 neighbor lists, perpetual/occasional/extra = 1 0 0
  (1) pair lj/cut/coul/long, perpetual
      attributes: half, newton on
      pair build: half/bin/newton
      stencil: half/bin/3d/newton
      bin: standard
Per MPI rank memory allocation (min/avg/max) = 38.91 | 39.47 | 40.11 Mbytes
Step Volume Temp Press Lx Ly Lz v_stress v_engStrain 
       0    2803115.4    300.00827    14569.181    140.99823    140.99823    140.99823   -14569.181   0.54820767 
      20    2824092.7    306.77704    2495.7899    141.03348    141.54064    141.47366   -2495.7899   0.54859472 
      40    2846151.2     305.0634    1295.6171    141.06873    142.08576    141.99618   -1295.6171   0.54898177 
      60    2841513.8    305.36941    207.40938    141.10398    141.94886    141.86609   -207.40938   0.54936883 
      80    2834638.6    305.17536    132.78662    141.13923    141.75421    141.68178   -132.78662   0.54975588 
     100    2835231.7    305.78595    69.117171    141.17448     141.7779    141.65236   -69.117171   0.55014293 
     120      2834474      303.977   -596.71509    141.20973    141.69556    141.66143    596.71509   0.55052998 
     140    2828572.7    303.19782   -730.03866    141.24498    141.54257    141.48397    730.03866   0.55091703 
     160    2824081.4    302.75574   -882.07623    141.28023    141.41439    141.35209    882.07623   0.55130408 
     180    2827029.4    303.51227   -1090.6643    141.31548    141.47718    141.40156    1090.6643   0.55169114 
     200    2822425.1    303.34801   -462.86721    141.35073    141.34748    141.26556    462.86721   0.55207819 
     220    2822529.5    302.43081   -442.34064    141.38597    141.34075     141.2423    442.34064   0.55246524 
     240    2822446.3    302.69463    197.14243    141.42122    141.31398    141.22967   -197.14243   0.55285229 
     260    2817194.5    302.27831    687.91182    141.45647    141.15138    141.09411   -687.91182   0.55323934 
     280    2819317.4    301.43323    668.21942    141.49172    141.18735    141.12928   -668.21942    0.5536264 
     300    2819945.2    301.09496   -374.41831    141.52697    141.17093    141.14197    374.41831   0.55401345 
     320    2818554.9    301.73634    606.65268    141.56222    141.08668    141.12148   -606.65268    0.5544005 
     340    2817788.5    301.37744   -547.42899    141.59747    141.05636     141.0783    547.42899   0.55478755 
     360    2817709.2    300.55324   -237.04224    141.63272    141.03832    141.05727    237.04224    0.5551746 
     380    2821161.1    301.13273    10.414274    141.66797    141.07448    141.15874   -10.414274   0.55556166 
     400    2820800.4    300.17824   -283.37495    141.70322    141.06122    141.11884    283.37495   0.55594871 
     420    2820731.3    300.29957   -115.47646    141.73847    141.03539    141.10612    115.47646   0.55633576 
     440    2820660.7    299.84721    329.60693    141.77372    141.03011    141.07279   -329.60693   0.55672281 
     460    2822792.4    299.90585   -143.63418    141.80897    141.03539    141.13903    143.63418   0.55710986 
     480    2821440.5    299.48558   -58.158737    141.84422    140.96106    141.11075    58.158737   0.55749692 
     500    2821733.2    299.72554    117.44352    141.87947    140.93617    141.11524   -117.44352   0.55788397 
     520    2822753.7    298.94251    109.70633    141.91472    140.96303    141.10432   -109.70633   0.55827102 
     540    2826760.3    299.12884   -349.60737    141.94997    141.04246    141.18996    349.60737   0.55865807 
     560    2827527.7    299.21219   -443.84231    141.98522    141.04816    141.18752    443.84231   0.55904512 
     580      2826438    299.65497   -174.82539    142.02047    140.99033    141.15596    174.82539   0.55943218 
     600    2828352.3    299.34876   -107.88971    142.05572    141.01544    141.19136    107.88971   0.55981923 
     620      2828400    298.66032   -395.51529    142.09097    140.97162    141.20259    395.51529   0.56020628 
     640    2828185.6    298.48733    50.838175    142.12622    140.95144    141.17708   -50.838175   0.56059333 
     660    2829376.2    299.11388    -120.6735    142.16146    140.95692      141.196     120.6735   0.56098038 
     680    2828687.9    299.62647    59.893317    142.19671    140.91577    141.16788   -59.893317   0.56136743 
     700    2829551.2    299.49332   -91.570019    142.23196    140.93121    141.16049    91.570019   0.56175449 
     720    2830728.9    300.28588    62.628418    142.26721    140.93127    141.18419   -62.628418   0.56214154 
     740    2831122.1    300.00717   -147.47403    142.30246    140.91187    141.18827    147.47403   0.56252859 
     760    2830866.8    300.15249    195.79557    142.33771    140.89494    141.15754   -195.79557   0.56291564 
     780    2831967.5    300.96002   -254.53812    142.37296    140.91873    141.15362    254.53812   0.56330269 
     800    2832731.8    299.12297    211.30603    142.40821    140.92588    141.14961   -211.30603   0.56368975 
     820    2831598.1    300.21074   -67.158114    142.44346    140.89033    141.09379    67.158114    0.5640768 
     840    2832626.2    299.23835   -53.061347    142.47871    140.86224    141.13825    53.061347   0.56446385 
     860    2833279.3    300.34224    215.54049    142.51396    140.85881     141.1393   -215.54049    0.5648509 
     880      2832671    300.56074    328.46776    142.54921    140.82546    141.10751   -328.46776   0.56523795 
     900    2833793.6    299.89173    92.046762    142.58446    140.85262    141.10133   -92.046762   0.56562501 
     920    2835392.2    300.16177   -34.822455    142.61971    140.85823    141.14041    34.822455   0.56601206 
     940      2834686    300.55205   -86.301471    142.65496    140.82813    141.10053    86.301471   0.56639911 
     960    2835575.7    300.16253   -213.81151    142.69021    140.86614    141.07188    213.81151   0.56678616 
     980    2836124.9    301.20556   -132.56822    142.72546    140.85805    141.07246    132.56822   0.56717321 
    1000    2835185.1    299.78202    59.562868    142.76071    140.79038    141.05866   -59.562868   0.56756027 
    1020    2836647.5    300.24987   -44.770381    142.79596    140.80801    141.07891    44.770381   0.56794732 
    1040    2834747.8    299.93068   -11.999676    142.83121    140.73554    141.02222    11.999676   0.56833437 
    1060    2836995.5    300.09826   -270.98181    142.86646    140.75981    141.07489    270.98181   0.56872142 
    1080    2837044.3    300.13632   -288.65318    142.90171    140.76795    141.03436    288.65318   0.56910847 
    1100    2836001.5    300.12482   -290.49308    142.93696    140.76826    140.94743    290.49308   0.56949553 
    1120    2836064.4    300.42969    105.33067     142.9722    140.75681    140.92728   -105.33067   0.56988258 
    1140    2837013.9    300.00542   -315.73635    143.00745    140.77777    140.91873    315.73635   0.57026963 
    1160    2837495.4    299.24926   -233.88277     143.0427    140.77282    140.91287    233.88277   0.57065668 
    1180    2836003.7    300.23815    -158.5138    143.07795    140.69581    140.88116     158.5138   0.57104373 
    1200    2836604.1    299.79409   -313.56099     143.1132    140.69413    140.87795    313.56099   0.57143078 
    1220    2835700.3    299.46328   -25.305354    143.14845    140.65629    140.83628    25.305354   0.57181784 
    1240    2836299.6    299.34465   -99.926927     143.1837    140.62297    140.86473    99.926927   0.57220489 
    1260    2835061.1    300.10606   -72.332869    143.21895    140.55109    140.84054    72.332869   0.57259194 
    1280    2835756.3    299.23688   -15.336014     143.2542    140.55476    140.83675    15.336014   0.57297899 
    1300    2835689.6    299.03973   -206.77834    143.28945    140.53706    140.81653    206.77834   0.57336604 
    1320    2836506.7    300.11314   -268.98661     143.3247    140.52595    140.83359    268.98661    0.5737531 
    1340    2836986.8    300.08921   -201.33279    143.35995    140.54492    140.80379    201.33279   0.57414015 
    1360    2836841.2    299.05286   -105.24009     143.3952    140.51405    140.79287    105.24009    0.5745272 
    1380    2837204.3    299.71959   -220.60091    143.43045    140.49086    140.79953    220.60091   0.57491425 
    1400    2836378.3      299.876    55.100198     143.4657    140.47878    140.73605   -55.100198    0.5753013 
    1420    2838545.3     300.0758    -280.0879    143.50095    140.54958    140.73804     280.0879   0.57568836 
    1440    2837622.8    300.61101    -158.0069     143.5362    140.50229    140.70509     158.0069   0.57607541 
    1460    2837614.8    299.72069    14.020577    143.57145    140.49547    140.67698   -14.020577   0.57646246 
    1480    2838823.9    301.00651   -132.00223     143.6067    140.52966    140.66815    132.00223   0.57684951 
    1500    2840350.8    300.48133     -191.984    143.64195     140.5391    140.69981      191.984   0.57723656 
    1520    2839203.1    299.87662   -269.23463     143.6772    140.48356    140.66405    269.23463   0.57762362 
    1540    2840414.5    299.51151   -297.36875    143.71245    140.49783    140.67526    297.36875   0.57801067 
    1560    2840874.5    300.67628   -299.07199     143.7477    140.47417    140.68723    299.07199   0.57839772 
    1580    2840976.4    300.26131   -307.31383    143.78294    140.46848    140.66349    307.31383   0.57878477 
    1600    2840130.5    300.46925    -161.9272    143.81819    140.44583    140.60981     161.9272   0.57917182 
    1620    2841958.6    299.63108   -295.82096    143.85344    140.45433    140.65733    295.82096   0.57955887 
    1640      2842830    299.91906   -226.59415    143.88869    140.46283    140.65747    226.59415   0.57994593 
    1660    2841156.7    300.99499   -232.06423    143.92394    140.42299    140.58012    232.06423   0.58033298 
    1680    2842262.6    301.36532    -228.0978    143.95919    140.41812    140.60529     228.0978   0.58072003 
    1700    2842231.5    300.24261   -354.04632    143.99444    140.37085    140.61667    354.04632   0.58110708 
    1720    2842150.7    299.54115   -71.250236    144.02969    140.37624    140.57286    71.250236   0.58149413 
    1740      2841140    300.38819   -109.86726    144.06494    140.34516     140.5196    109.86726   0.58188119 
    1760      2841888    299.45615   -82.592111    144.10019    140.32832    140.53907    82.592111   0.58226824 
    1780    2841927.7    299.75589   -197.12011    144.13544    140.33331    140.50166    197.12011   0.58265529 
    1800    2842591.1    299.17696   -260.26121    144.17069    140.34591    140.48749    260.26121   0.58304234 
    1820    2842048.6    299.76645   -102.85169    144.20594    140.30371    140.46858    102.85169   0.58342939 
    1840    2843337.6    299.95222    40.666955    144.24119    140.33921    140.46241   -40.666955   0.58381645 
    1860    2842901.9    299.33596   -169.39395    144.27644    140.27621    140.46963    169.39395    0.5842035 
    1880    2843692.3    299.44193   -316.46547    144.31169    140.29551    140.45504    316.46547   0.58459055 
    1900    2844185.4    299.90599   -218.31803    144.34694    140.28932    140.45128    218.31803    0.5849776 
    1920      2844072    299.47159   -320.42781    144.38219    140.25897    140.44178    320.42781   0.58536465 
    1940    2844920.3    299.46919    -277.3466    144.41744    140.25872    140.44964     277.3466   0.58575171 
    1960    2843305.5    299.26614   -334.74197    144.45269    140.18843    140.40602    334.74197   0.58613876 
    1980      2846478    300.96917   -434.35089    144.48794    140.26091    140.45577    434.35089   0.58652581 
    2000    2845454.8    299.32628   -386.67432    144.52319    140.23063    140.40135    386.67432   0.58691286 
    2020      2846276    299.03572   -495.91547    144.55843    140.23152    140.40673    495.91547   0.58729991 
    2040    2845243.4    299.63904   -323.29805    144.59368    140.17869    140.37446    323.29805   0.58768697 
    2060    2846296.5    300.06215   -433.72971    144.62893    140.16086    140.41005    433.72971   0.58807402 
    2080    2846836.3    299.26015   -282.88785    144.66418    140.14448    140.41887    282.88785   0.58846107 
    2100    2845973.3    299.83476   -363.00379    144.69943    140.15381    140.33276    363.00379   0.58884812 
    2120      2847261    299.87287   -321.85256    144.73468    140.15967     140.3562    321.85256   0.58923517 
    2140    2846657.7    299.47706   -329.98584    144.76993    140.10813     140.3439    329.98584   0.58962222 
    2160    2847578.9    299.27785   -358.26209    144.80518    140.11477     140.3485    358.26209   0.59000928 
    2180    2847332.7     299.6239   -189.76008    144.84043    140.09977    140.31722    189.76008   0.59039633 
    2200    2848026.4    299.60362   -262.01066    144.87568    140.11709    140.29992    262.01066   0.59078338 
    2220      2848119    299.96613   -223.04002    144.91093    140.08155    140.30594    223.04002   0.59117043 
    2240    2848488.6    299.38512    -282.7387    144.94618    140.08071    140.29086     282.7387   0.59155748 
    2260    2847365.8    299.52198   -111.97791    144.98143     140.0842    140.19797    111.97791   0.59194454 
    2280    2847322.6     300.1647   -192.82777    145.01668    140.08285    140.16311    192.82777   0.59233159 
    2300    2847668.5    299.77249   -228.88451    145.05193     140.0912    140.13773    228.88451   0.59271864 
    2320    2848023.4    299.51534   -217.36919    145.08718    140.08211    140.13023    217.36919   0.59310569 
    2340    2846750.3    299.55718   -278.64969    145.12243    140.02958     140.0861    278.64969   0.59349274 
    2360    2846367.2    299.62612   -69.230662    145.15768    140.00759    140.05523    69.230662    0.5938798 
    2380      2847589    300.44518   -268.49129    145.19293    140.01298    140.07593    268.49129   0.59426685 
    2400    2847464.9    299.91961   -182.67301    145.22818    140.00402     140.0448    182.67301    0.5946539 
    2420    2847385.5    299.79492   -357.09541    145.26343    139.98153    140.02941    357.09541   0.59504095 
    2440    2847176.9    299.83804   -221.88018    145.29868    139.95753    140.00919    221.88018     0.595428 
    2460    2848337.3     300.4243   -242.42227    145.33393    139.98583    140.00396    242.42227   0.59581506 
    2480    2848821.9    300.63273   -368.46158    145.36917     139.9569    140.02276    368.46158   0.59620211 
    2500    2848553.8     300.6512    -194.2283    145.40442    139.93183    140.00073     194.2283   0.59658916 
    2520    2847059.8    300.88942   -72.641193    145.43967    139.85695    139.96828    72.641193   0.59697621 
    2540    2849782.4    300.55202    -138.8866    145.47492    139.88978    140.03532     138.8866   0.59736326 
    2560    2850367.4    300.59293    -252.9918    145.51017    139.89924    140.02066     252.9918   0.59775032 
    2580    2850848.7    300.29331   -223.39671    145.54542    139.87788    140.03177    223.39671   0.59813737 
    2600    2850165.1    300.66086   -232.11552    145.58067    139.83046    140.01176    232.11552   0.59852442 
    2620    2851326.3    299.97765   -329.24785    145.61592    139.85905    140.00627    329.24785   0.59891147 
    2640    2852653.6    300.49399   -196.20898    145.65117    139.87829    140.01828    196.20898   0.59929852 
    2660    2851842.3    299.80561   -251.33801    145.68642    139.81493    140.00801    251.33801   0.59968557 
    2680    2852465.7    300.03014   -173.08153    145.72167    139.83308    139.98656    173.08153   0.60007263 
    2700    2852387.2    299.87883   -71.622241    145.75692     139.7953    139.98669    71.622241   0.60045968 
    2720    2854128.3    299.89064   -97.930356    145.79217     139.8565    139.97699    97.930356   0.60084673 
    2740    2852596.4    299.61251   -68.992343    145.82742    139.79462    139.92995    68.992343   0.60123378 
    2760      2853664    299.05249   -180.54945    145.86267    139.79902    139.94409    180.54945   0.60162083 
    2780    2854033.8    299.26021   -202.59052    145.89792    139.77126     139.9562    202.59052   0.60200789 
    2800    2854870.3    299.24859   -390.38156    145.93317    139.78516    139.94948    390.38156   0.60239494 
    2820    2855324.3     299.0172   -427.45593    145.96842    139.79639     139.9267    427.45593   0.60278199 
    2840    2855945.4    299.68696   -417.76633    146.00367    139.78111    139.93864    417.76633   0.60316904 
    2860    2855347.9    299.61452   -165.60831    146.03892    139.73858    139.91817    165.60831   0.60355609 
    2880    2854648.3    299.91121   -372.79066    146.07417    139.70552    139.88322    372.79066   0.60394315 
    2900    2855347.3    300.00335   -349.28987    146.10942    139.70104     139.8882    349.28987    0.6043302 
    2920    2855025.2    300.73817   -504.82968    146.14466    139.67875      139.861    504.82968   0.60471725 
    2940    2855880.6    300.52066    -641.2174    146.17991    139.69341    139.85449     641.2174    0.6051043 
    2960    2854948.9    300.13638   -486.87314    146.21516    139.62961    139.83903    486.87314   0.60549135 
    2980    2855817.3    300.63606   -450.08021    146.25041    139.64981    139.82762    450.08021   0.60587841 
    3000    2855612.7     300.3478    -352.8176    146.28566    139.65371    139.78001     352.8176   0.60626546 
    3020    2854971.5    300.43996   -358.23693    146.32091     139.6393    139.72937    358.23693   0.60665251 
    3040    2855471.7    300.65243   -301.69363    146.35616    139.64765    139.71184    301.69363   0.60703956 
    3060    2855815.2    300.44478    -300.1595    146.39141    139.60519    139.73748     300.1595   0.60742661 
    3080    2854842.3    300.03228   -239.94313    146.42666    139.54788    139.71361    239.94313   0.60781366 
    3100    2855184.4    300.02976   -391.46634    146.46191     139.5507     139.6939    391.46634   0.60820072 
    3120    2856422.8    300.33082   -336.42389    146.49716    139.60125    139.67027    336.42389   0.60858777 
    3140    2856068.8    300.43604   -155.53994    146.53241    139.59275    139.62787    155.53994   0.60897482 
    3160    2856287.6    299.96129   -306.69064    146.56766    139.55169    139.64606    306.69064   0.60936187 
    3180    2856774.4    300.20871   -218.04002    146.60291    139.54891    139.63906    218.04002   0.60974892 
    3200    2857059.4    299.70525   -260.04017    146.63816    139.53673     139.6316    260.04017   0.61013598 
    3220    2857256.1    299.98986    -201.5707    146.67341    139.49105    139.65338     201.5707   0.61052303 
    3240    2857534.2    299.44286   -223.91749    146.70866    139.48978    139.63468    223.91749   0.61091008 
    3260      2857580    299.80282   -136.41011    146.74391    139.46369    139.62949    136.41011   0.61129713 
    3280    2859379.4    300.07663   -322.71201    146.77916    139.50393    139.64358    322.71201   0.61168418 
    3300    2859355.2    300.05273   -310.05852    146.81441    139.49047    139.62233    310.05852   0.61207124 
    3320    2859472.9    299.21154   -196.58037    146.84966    139.46346     139.6216    196.58037   0.61245829 
    3340    2859664.4    300.43758   -214.78067    146.88491     139.4594    139.60151    214.78067   0.61284534 
    3360    2859805.7    300.13953   -116.82603    146.92016    139.48105    139.55325    116.82603   0.61323239 
    3380    2860049.2    299.41439   -136.22829     146.9554    139.47912    139.53359    136.22829   0.61361944 
    3400    2860624.5    300.32299   -64.944084    146.99065    139.49232    139.51498    64.944084    0.6140065 
    3420    2861101.9    300.21705   -270.64938     147.0259    139.48305    139.51408    270.64938   0.61439355 
    3440    2861428.5    300.15437   -349.28101    147.06115    139.46833    139.51128    349.28101    0.6147806 
    3460    2862502.1    300.43407    -493.1202     147.0964    139.51136    139.48715     493.1202   0.61516765 
    3480    2862063.3    301.62273   -484.04563    147.13165    139.47039    139.47331    484.04563    0.6155547 
    3500    2862614.2    301.70326    -262.2361     147.1669    139.45698    139.48016     262.2361   0.61594176 
    3520    2861840.7    301.01489   -372.61254    147.20215    139.45403    139.41202    372.61254   0.61632881 
    3540    2862622.7    300.73768   -272.59774     147.2374    139.47117     139.3996    272.59774   0.61671586 
    3560    2863695.9    300.70957   -352.73322    147.27265    139.46495     139.4247    352.73322   0.61710291 
    3580    2864452.8    300.78205   -276.28332     147.3079    139.42182    139.47131    276.28332   0.61748996 
    3600    2864656.1    300.00914   -399.32063    147.34315    139.43867    139.43099    399.32063   0.61787701 
    3620    2865469.1    300.03448   -327.13215     147.3784    139.43167    139.44421    327.13215   0.61826407 
    3640    2866612.7    300.40783   -474.28705    147.41365    139.47079    139.42738    474.28705   0.61865112 
    3660    2866202.8    300.05938   -442.01908     147.4489    139.45099     139.3939    442.01908   0.61903817 
    3680    2866406.1    300.15851   -418.20751    147.48415    139.41596    139.40549    418.20751   0.61942522 
    3700    2865679.8    300.05417   -281.24039     147.5194    139.36384    139.38897    281.24039   0.61981227 
    3720    2866389.7    300.21838   -147.38613    147.55465    139.36822    139.38581    147.38613   0.62019933 
    3740    2866481.4     299.3056   -378.10484     147.5899    139.33715    139.38806    378.10484   0.62058638 
    3760      2866659    298.88523   -312.17867    147.62515    139.28595    139.41464    312.17867   0.62097343 
    3780      2867173     299.8809   -474.12077     147.6604    139.30196    139.39033    474.12077   0.62136048 
    3800    2867960.5    300.02581   -657.99832    147.69565    139.33385    139.36344    657.99832   0.62174753 
    3820    2867095.2    299.74125   -440.96883     147.7309     139.3253    139.29669    440.96883   0.62213459 
    3840    2866871.2    299.98277   -424.03706    147.76614    139.30137     139.2765    424.03706   0.62252164 
    3860    2866773.9    299.84602   -198.20247    147.80139    139.29973     139.2402    198.20247   0.62290869 
    3880      2866645    300.07794   -217.46411    147.83664    139.26678    139.23368    217.46411   0.62329574 
    3900    2867903.6    300.32252    -172.4808    147.87189    139.25658     139.2718     172.4808   0.62368279 
    3920      2868188     300.0206   -255.99097    147.90714    139.24116    139.26784    255.99097   0.62406985 
    3940    2867867.7    299.54988   -226.23584    147.94239    139.18678     139.2735    226.23584    0.6244569 
    3960      2868322     301.3808   -310.05044    147.97764    139.16275    139.28643    310.05044   0.62484395 
    3980    2868815.5     300.3987   -321.23372    148.01289    139.18003    139.25993    321.23372     0.625231 
    4000    2869424.9    300.41267    -134.6164    148.04814    139.19854    139.23783     134.6164   0.62561805 
    4020    2868849.4    300.74966   -189.04364    148.08339    139.14917    139.22614    189.04364   0.62600511 
    4040    2869948.8    300.75547   -162.39562    148.11864     139.1667     139.2288    162.39562   0.62639216 
    4060    2870865.5    300.08584   -229.13387    148.15389    139.18102    139.22582    229.13387   0.62677921 
    4080    2870489.3    299.59799   -309.37234    148.18914    139.15726    139.19822    309.37234   0.62716626 
    4100      2871208    300.36401   -340.58948    148.22439    139.17016    139.18706    340.58948   0.62755331 
    4120    2870678.6    299.99389   -406.11182    148.25964    139.16662    139.13185    406.11182   0.62794036 
    4140    2871827.4    299.81058   -419.17004    148.29489    139.16484    139.15622    419.17004   0.62832742 
    4160    2872409.6    299.42943   -498.50196    148.33014    139.15686    139.15933    498.50196   0.62871447 
    4180      2871630    300.33182   -480.93504    148.36539    139.14341    139.10196    480.93504   0.62910152 
    4200    2871405.6    299.61108   -358.76622    148.40064     139.0644    139.13706    358.76622   0.62948857 
    4220    2870322.4    299.47892   -314.41426    148.43589    139.00727    139.10869    314.41426   0.62987562 
    4240    2870957.9    299.25516   -442.54888    148.47114    139.02762    139.08609    442.54888   0.63026268 
    4260    2871836.8    299.61516   -535.54595    148.50639    139.01442    139.10885    535.54595   0.63064973 
    4280    2870794.2    300.11114   -342.30965    148.54163    138.97288    139.06691    342.30965   0.63103678 
    4300      2870634    300.22203   -284.34663    148.57688    138.98968    139.00935    284.34663   0.63142383 
    4320    2872073.7    299.71875   -204.61101    148.61213    138.98089    139.05487    204.61101   0.63181088 
    4340    2871404.6    299.07012   -270.74813    148.64738     138.9269    139.04353    270.74813   0.63219794 
    4360    2871625.9    299.78548    -265.4835    148.68263    138.90464    139.04356     265.4835   0.63258499 
    4380    2871536.2    300.61768   -264.99365    148.71788    138.87164    139.03929    264.99365   0.63297204 
    4400    2871412.6    300.21407   -264.65234    148.75313    138.83262    139.03943    264.65234   0.63335909 
    4420    2871202.2    299.73809   -326.82265    148.78838    138.84889    138.98001    326.82265   0.63374614 
    4440    2871827.6    300.20621   -286.59622    148.82363    138.91854    138.90767    286.59622    0.6341332 
    4460    2872555.3    300.05344   -303.46086    148.85888    138.90058    138.92794    303.46086   0.63452025 
    4480    2871906.3    298.92674   -354.94159    148.89413    138.85944     138.9048    354.94159    0.6349073 
    4500      2873007    299.43987   -456.63684    148.92938    138.91193    138.87266    456.63684   0.63529435 
    4520    2873285.3    300.13534   -307.89917    148.96463    138.90295    138.86223    307.89917    0.6356814 
    4540    2873372.3    299.62926   -267.84808    148.99988     138.9034    138.83313    267.84808   0.63606845 
    4560    2873395.2    299.23734   -245.50958    149.03513    138.91674    138.78806    245.50958   0.63645551 
    4580      2873845    299.82925   -198.49517    149.07038    138.90751    138.78619    198.49517   0.63684256 
    4600    2875041.2    299.93616   -329.28974    149.10563    138.96812    138.75059    329.28974   0.63722961 
    4620    2875070.2    299.26748     -410.571    149.14088    138.98726     138.7001      410.571   0.63761666 
    4640    2874969.3    299.17047   -484.51103    149.17613    138.94239    138.70723    484.51103   0.63800371 
    4660    2875629.8    299.87822   -361.53846    149.21138    138.93078    138.71793    361.53846   0.63839077 
    4680    2873884.8    299.76097   -303.94672    149.24663    138.88123    138.65045    303.94672   0.63877782 
    4700    2874575.5    299.81859   -389.13462    149.28188    138.90382    138.62848    389.13462   0.63916487 
    4720    2875769.2    299.71102   -468.80107    149.31713    138.90168    138.65544    468.80107   0.63955192 
    4740      2874875     299.1294   -348.39972    149.35237    138.87813    138.60311    348.39972   0.63993897 
    4760    2874941.7    300.11005   -311.38419    149.38762    138.90129    138.55051    311.38419   0.64032603 
    4780      2874658    299.80569   -312.53833    149.42287    138.85306    138.55227    312.53833   0.64071308 
    4800    2876100.9    300.23981   -503.84806    149.45812    138.87507    138.56716    503.84806   0.64110013 
    4820    2875846.4    300.75411   -458.66793    149.49337    138.85601    138.54124    458.66793   0.64148718 
    4840    2875810.9    300.30307   -378.89275    149.52862    138.79278    138.56997    378.89275   0.64187423 
    4860    2876789.9    300.13413   -313.15907    149.56387    138.79405     138.5832    313.15907   0.64226129 
    4880    2877136.7    301.01063   -391.01008    149.59912    138.82229    138.53907    391.01008   0.64264834 
    4900    2876844.5    300.66256   -187.45526    149.63437    138.74925    138.56527    187.45526   0.64303539 
    4920    2877877.9    300.47043   -443.28369    149.66962    138.74564      138.586    443.28369   0.64342244 
    4940    2877860.4    301.03468   -381.25905    149.70487    138.73257    138.56558    381.25905   0.64380949 
    4960    2878630.6    300.27599    -501.3805    149.74012    138.73333    138.56927     501.3805   0.64419655 
    4980    2879029.9    300.62329    -566.9775    149.77537    138.70223    138.58695     566.9775    0.6445836 
    5000    2879710.4    300.30965   -481.25008    149.81062    138.71104    138.57829    481.25008   0.64497065 
    5020    2880104.4    299.74555   -443.40097    149.84587     138.7287    138.54701    443.40097    0.6453577 
    5040    2878968.3    299.78118   -329.73882    149.88112    138.66872    138.51967    329.73882   0.64574475 
    5060    2880032.3    298.85468   -440.98037    149.91637    138.69546    138.51158    440.98037    0.6461318 
    5080    2880854.5    300.78926     -543.456    149.95162    138.68102    138.53297      543.456   0.64651886 
    5100    2881505.6    300.82591   -687.38761    149.98687    138.69262    138.52013    687.38761   0.64690591 
    5120    2881543.3    300.32094   -695.75441    150.02212    138.67808    138.50391    695.75441   0.64729296 
    5140    2881971.4    299.90169   -682.10671    150.05737    138.66004    138.50997    682.10671   0.64768001 
    5160      2881928    299.86146   -678.13285    150.09262    138.62763    138.50773    678.13285   0.64806706 
    5180    2882233.4    299.81803   -639.43957    150.12786    138.64438    138.47315    639.43957   0.64845412 
    5200    2882391.6    299.94888   -537.31136    150.16311    138.61497    138.47762    537.31136   0.64884117 
    5220    2882575.8    299.71931   -508.02889    150.19836     138.5973    138.47162    508.02889   0.64922822 
    5240    2882205.9    299.76755   -538.05042    150.23361    138.59911    138.41956    538.05042   0.64961527 
    5260    2882546.2    300.53079   -441.64151    150.26886    138.56515    138.43735    441.64151   0.65000232 
    5280    2884310.9    300.27321   -591.28663    150.30411    138.60471    138.45008    591.28663   0.65038938 
    5300    2883703.3    300.31289   -604.24799    150.33936     138.5801    138.41304    604.24799   0.65077643 
    5320    2884018.8    299.98268   -508.71024    150.37461    138.55535    138.42045    508.71024   0.65116348 
    5340    2883440.3    300.33096   -354.35844    150.40986    138.56453    138.35108    354.35844   0.65155053 
    5360    2883198.9    300.47203    -210.8214    150.44511    138.56791    138.30372     210.8214   0.65193758 
    5380    2882622.2    299.82234   -182.37935    150.48036     138.5285    138.28299    182.37935   0.65232464 
    5400    2883923.7    299.64794   -441.13073    150.51561    138.55858      138.283    441.13073   0.65271169 
    5420    2884001.6    300.36539   -551.32728    150.55086    138.53179    138.28109    551.32728   0.65309874 
    5440    2883377.7    299.74955   -511.70019    150.58611    138.50415    138.24641    511.70019   0.65348579 
    5460    2883563.4    300.26469    -546.8744    150.62136    138.50215    138.22495     546.8744   0.65387284 
    5480    2884706.8    299.63601   -479.89105    150.65661    138.52603    138.22357    479.89105    0.6542599 
    5500    2883836.3    300.65203   -385.90036    150.69186    138.49947    138.17602    385.90036   0.65464695 
    5520    2883396.5    300.21497   -262.90223    150.72711     138.4493     138.1727    262.90223     0.655034 
    5540    2884815.2    299.73851      -202.24    150.76236    138.49642    138.16134       202.24   0.65542105 
    5560    2885067.5    299.93613   -416.89291    150.79761     138.4852    138.15232    416.89291    0.6558081 
    5580    2885725.1    300.13207   -391.22643    150.83286    138.45892    138.17774    391.22643   0.65619515 
    5600    2886425.9    300.69155   -519.96452    150.86811    138.46097    138.17695    519.96452   0.65658221 
    5620    2887856.5    300.06676   -537.72341    150.90336    138.46912    138.20501    537.72341   0.65696926 
    5640    2888464.7    299.81343   -634.97535     150.9386    138.46133    138.20961    634.97535   0.65735631 
    5660    2888293.5    300.10255   -624.94657    150.97385    138.45036    138.18009    624.94657   0.65774336 
    5680    2887484.9    300.35837   -414.14347     151.0091    138.40839    138.15104    414.14347   0.65813041 
    5700    2887905.2    300.58911   -404.35464    151.04435    138.37389    138.17335    404.35464   0.65851747 
    5720    2888581.8    300.05941   -420.26785     151.0796    138.36452    138.18283    420.26785   0.65890452 
    5740    2888359.4    300.63211   -578.22982    151.11485    138.36439    138.14009    578.22982   0.65929157 
    5760    2889073.1    300.16204     -525.858     151.1501     138.3589    138.14749      525.858   0.65967862 
    5780    2888200.5     300.2081   -498.04255    151.18535    138.29715    138.13521    498.04255   0.66006567 
    5800    2888324.6      299.999    -465.2158     151.2206    138.30209    138.10401     465.2158   0.66045273 
    5820    2888778.8     299.6487   -422.77336    151.25585    138.30395    138.09168    422.77336   0.66083978 
    5840    2888645.4    299.20668   -559.31294     151.2911    138.31927    138.03784    559.31294   0.66122683 
    5860    2888225.7    299.35345   -398.96845    151.32635    138.34676    137.95822    398.96845   0.66161388 
    5880    2889217.8    299.67583   -601.33714     151.3616    138.36724    137.95305    601.33714   0.66200093 
    5900    2889812.6    299.77037   -349.06469    151.39685    138.34103    137.97545    349.06469   0.66238799 
    5920    2889971.8    299.90946   -393.86156     151.4321    138.32951    137.96242    393.86156   0.66277504 
    5940    2889570.7    298.92159   -485.72981    151.46735    138.32897    137.91172    485.72981   0.66316209 
    5960    2890033.9    300.20424    -521.3526     151.5026    138.33308    137.89763     521.3526   0.66354914 
    5980    2890175.6    299.23628    -575.5033    151.53785     138.3276    137.87778     575.5033   0.66393619 
    6000    2889464.1    299.05917   -770.26121     151.5731    138.30265    137.83664    770.26121   0.66432324 
    6020    2889409.5    299.16094    -688.9467    151.60835    138.27596    137.82859     688.9467    0.6647103 
    6040    2888919.9    299.58952   -541.79313     151.6436    138.26409    137.78503    541.79313   0.66509735 
    6060    2889812.5    298.69985   -712.89101    151.67885    138.28062    137.77909    712.89101    0.6654844 
    6080    2889569.5    299.22128   -618.59063    151.71409    138.23958     137.7764    618.59063   0.66587145 
    6100    2891246.3    299.78638    -748.1773    151.74934    138.26578    137.79821     748.1773    0.6662585 
    6120    2891414.7    299.34894    -663.7321    151.78459    138.28007    137.75999     663.7321   0.66664556 
    6140    2889944.1    299.36004   -488.18832    151.81984    138.22852    137.70929    488.18832   0.66703261 
    6160    2890930.5    299.53133   -571.21668    151.85509    138.24432    137.70857    571.21668   0.66741966 
    6180    2892720.2    300.25601   -663.86911    151.89034    138.27752    137.72878    663.86911   0.66780671 
    6200    2892522.6    300.20077   -627.15755    151.92559    138.23147    137.73329    627.15755   0.66819376 
    6220    2892688.6    299.84219   -584.36017    151.96084    138.20836    137.73226    584.36017   0.66858082 
    6240    2893007.5    300.48708   -445.53321    151.99609    138.20987      137.714    445.53321   0.66896787 
    6260    2893434.5    300.23862   -239.63503    152.03134    138.18507    137.72711    239.63503   0.66935492 
    6280    2893009.4    299.35194   -307.46413    152.06659    138.13652    137.72333    307.46413   0.66974197 
    6300    2892633.1    299.97774   -244.38371    152.10184    138.12552    137.68448    244.38371   0.67012902 
    6320    2894732.1    299.86601   -411.16199    152.13709    138.17176    137.70636    411.16199   0.67051608 
    6340    2894359.4    300.53191   -443.22131    152.17234    138.19434    137.63424    443.22131   0.67090313 
    6360    2894638.5    299.71096   -452.87795    152.20759    138.18022    137.62969    452.87795   0.67129018 
    6380    2894663.4    299.91606    -427.8046    152.24284    138.14725    137.63185     427.8046   0.67167723 
    6400    2895117.2     300.4999   -340.59297    152.27809    138.15132    137.61751    340.59297   0.67206428 
    6420    2895215.9    300.69579   -326.89681    152.31334    138.12609    137.61548    326.89681   0.67245134 
    6440    2895091.3    299.55634   -409.36215    152.34859    138.14119    137.56269    409.36215   0.67283839 
    6460      2895881    300.28941   -292.17256    152.38384    138.12183    137.58766    292.17256   0.67322544 
    6480    2895681.6    300.01938   -373.61997    152.41909    138.08687    137.58119    373.61997   0.67361249 
    6500    2896537.8    300.24291     -343.546    152.45434    138.09896    137.57801      343.546   0.67399954 
    6520    2897787.4    299.96021   -416.47635    152.48959    138.06499     137.6394    416.47635   0.67438659 
    6540    2898432.6    299.34483   -410.17854    152.52483    138.05321    137.64998    410.17854   0.67477365 
    6560    2898592.1    300.32787   -579.29207    152.56008    138.06278     137.6162    579.29207    0.6751607 
    6580    2899704.6    299.86586   -547.59015    152.59533    138.08803    137.61205    547.59015   0.67554775 
    6600    2900121.5    299.99608   -618.15488    152.63058      138.065      137.623    618.15488    0.6759348 
    6620    2900410.4    299.52037   -678.04677    152.66583    138.07964    137.59034    678.04677   0.67632185 
    6640    2901021.9    298.99757   -639.33768    152.70108    138.07376    137.59344    639.33768   0.67670891 
    6660    2901589.5    299.23299   -634.25316    152.73633    138.03923    137.62302    634.25316   0.67709596 
    6680    2902096.5    298.28619   -620.88478    152.77158    138.01143    137.64303    620.88478   0.67748301 
    6700    2902398.2    299.55475   -492.32432    152.80683    138.01245    137.62456    492.32432   0.67787006 
    6720    2903269.8    299.94017   -649.69317    152.84208    138.05216    137.59455    649.69317   0.67825711 
    6740    2903050.5    300.01714   -608.93879    152.87733    138.06006    137.54457    608.93879   0.67864417 
    6760    2903384.6    299.84303   -649.54799    152.91258    138.00956    137.57902    649.54799   0.67903122 
    6780    2903508.3    299.99669   -627.62639    152.94783    137.95553    137.60703    627.62639   0.67941827 
    6800    2903926.7    300.12437   -676.53844    152.98308    137.94861    137.60206    676.53844   0.67980532 
    6820    2903494.7    300.48254   -581.61619    153.01833    137.92573    137.57271    581.61619   0.68019237 
    6840    2904721.4    299.94142   -565.97995    153.05358    137.92728    137.59759    565.97995   0.68057943 
    6860    2905230.4    300.71795   -596.94703    153.08883    137.90888    137.60838    596.94703   0.68096648 
    6880    2904617.6     300.3816   -586.53685    153.12408    137.87929    137.57719    586.53685   0.68135353 
    6900    2904146.3    301.21054   -400.21671    153.15933    137.84251     137.5599    400.21671   0.68174058 
    6920    2905574.9    300.71151   -552.43636    153.19458    137.87565    137.56284    552.43636   0.68212763 
    6940      2906873    300.90631    -585.8106    153.22983    137.83311     137.6351     585.8106   0.68251469 
    6960    2905902.5    300.91641   -482.57478    153.26508    137.79136    137.59918    482.57478   0.68290174 
    6980    2906756.4    300.61043   -426.85288    153.30033     137.8209    137.57848    426.85288   0.68328879 
    7000    2907404.7    300.15191   -473.67353    153.33557    137.83799    137.56047    473.67353   0.68367584 
    7020    2908085.2    300.37465   -613.87759    153.37082    137.83896    137.56008    613.87759   0.68406289 
    7040    2908691.3    300.64634   -574.07027    153.40607    137.83887    137.55721    574.07027   0.68444994 
    7060    2909527.4    299.98845   -589.71619    153.44132    137.85126    137.55278    589.71619     0.684837 
    7080    2909311.6    299.88918   -593.24064    153.47657    137.81977    137.54241    593.24064   0.68522405 
    7100    2910054.7    300.28886   -621.19738    153.51182    137.83021    137.53553    621.19738    0.6856111 
    7120    2910366.7    299.89588   -566.31414    153.54707    137.82565    137.52325    566.31414   0.68599815 
    7140    2910930.8    299.87549   -578.71982    153.58232    137.81833    137.52564    578.71982    0.6863852 
    7160    2910876.8    300.00803   -708.96159    153.61757    137.80041    137.50941    708.96159   0.68677226 
    7180    2911764.7    300.02941   -592.44096    153.65282    137.82092    137.49933    592.44096   0.68715931 
    7200    2911828.8    300.03079   -493.46239    153.68807     137.8565    137.43535    493.46239   0.68754636 
    7220    2911702.3    299.33573   -510.86179    153.72332    137.82353    137.43073    510.86179   0.68793341 
    7240    2911011.9    300.06447   -551.33811    153.75857    137.76966    137.42035    551.33811   0.68832046 
    7260    2911627.8     300.2669   -504.33051    153.79382    137.74752    137.44002    504.33051   0.68870752 
    7280    2912173.8    300.07159   -411.85933    153.82907    137.71724     137.4645    411.85933   0.68909457 
    7300    2911798.2    300.38593   -528.48869    153.86432    137.69385    137.43862    528.48869   0.68948162 
    7320    2912083.5     300.0049     -407.052    153.89957    137.71032    137.40417      407.052   0.68986867 
    7340    2911289.6    299.26851   -323.60218    153.93482    137.69682    137.34872    323.60218   0.69025572 
    7360    2911052.7    300.29766   -289.98057    153.97007    137.65602     137.3468    289.98057   0.69064278 
    7380      2911156    300.27115   -363.17124    154.00532    137.70224    137.27415    363.17124   0.69102983 
    7400    2912806.9    300.68049   -496.13801    154.04057    137.70197    137.32083    496.13801   0.69141688 
    7420    2913152.9    300.32855   -461.17065    154.07582     137.6918    137.31587    461.17065   0.69180393 
    7440    2912171.8    299.95857   -578.02952    154.11106    137.66739    137.26256    578.02952   0.69219098 
    7460    2911628.3     300.2779   -468.68999    154.14631    137.64363    137.22925    468.68999   0.69257803 
    7480    2911845.9    300.85204   -423.74416    154.18156    137.63704    137.21469    423.74416   0.69296509 
    7500    2912762.8    300.06312   -497.13047    154.21681    137.68771    137.17602    497.13047   0.69335214 
    7520    2913566.4    300.33188   -566.30253    154.25206    137.66366    137.20648    566.30253   0.69373919 
    7540    2913231.7    300.14039   -588.02991    154.28731    137.60453    137.21831    588.02991   0.69412624 
    7560    2913389.8    300.15883   -546.21784    154.32256    137.62343    137.17558    546.21784   0.69451329 
    7580    2914310.5    300.34744   -735.21051    154.35781    137.63626     137.1748    735.21051   0.69490035 
    7600    2914441.1    299.64308   -710.15799    154.39306    137.61709    137.16873    710.15799    0.6952874 
    7620    2914885.3    299.42916   -687.23196    154.42831    137.56819    137.20708    687.23196   0.69567445 
    7640    2914783.1     299.8815   -586.92838    154.46356    137.51663    137.22239    586.92838    0.6960615 
    7660    2915709.7    300.52365   -407.55723    154.49881    137.52157    137.22977    407.55723   0.69644855 
    7680    2916298.1    299.83805   -340.47209    154.53406    137.52787    137.21986    340.47209   0.69683561 
    7700    2915738.8    299.72612    -192.6655    154.56931    137.48957    137.20047     192.6655   0.69722266 
    7720    2916405.6    299.56196   -178.69251    154.60456    137.49657    137.19357    178.69251   0.69760971 
    7740    2917709.5    299.90122   -273.23384    154.63981    137.51532    137.20492    273.23384   0.69799676 
    7760    2918155.6    299.98524   -500.57834    154.67506    137.51648    137.19346    500.57834   0.69838381 
    7780    2917649.2    299.54836   -566.96796    154.71031    137.46766     137.1871    566.96796   0.69877087 
    7800    2918622.4    299.83564    -498.8926    154.74556    137.43999    137.22923     498.8926   0.69915792 
    7820      2919032    299.92473   -542.18113    154.78081    137.40823    137.24895    542.18113   0.69954497 
    7840    2919173.9    299.32194   -530.56255    154.81606    137.40279     137.2298    530.56255   0.69993202 
    7860    2918803.7    299.04485   -535.25982    154.85131    137.34854    137.23535    535.25982   0.70031907 
    7880    2919770.7    300.51317   -591.44884    154.88656    137.35209    137.24602    591.44884   0.70070613 
    7900    2919725.2    300.45286   -618.09169     154.9218    137.32127    137.24345    618.09169   0.70109318 
    7920    2920251.3      299.854   -575.24964    154.95705    137.30709    137.25112    575.24964   0.70148023 
    7940    2920270.5    299.32313   -606.89319     154.9923    137.27683    137.25106    606.89319   0.70186728 
    7960    2920660.1     300.0406   -544.33964    155.02755    137.27761    137.23738    544.33964   0.70225433 
    7980    2920907.7    298.94867   -555.80542     155.0628    137.30475    137.19069    555.80542   0.70264138 
    8000    2920929.2    299.11003   -549.52399    155.09805    137.28905    137.17621    549.52399   0.70302844 
    8020    2921039.1    299.44345   -601.02888     155.1333    137.24601    137.19321    601.02888   0.70341549 
    8040    2920418.7    299.28843   -544.05787    155.16855    137.19519     137.1837    544.05787   0.70380254 
    8060    2919458.9    299.26975   -429.83688     155.2038    137.15895     137.1437    429.83688   0.70418959 
    8080    2920514.5    299.46462   -541.99911    155.23905    137.23179    137.08934    541.99911   0.70457664 
    8100    2921080.1      299.423   -583.30423     155.2743    137.23296    137.08359    583.30423    0.7049637 
    8120    2920986.7    299.55093     -521.756    155.30955    137.20328    137.07773      521.756   0.70535075 
    8140    2921177.4    299.48232    -535.8688     155.3448    137.19361    137.06524     535.8688    0.7057378 
    8160    2920868.1    299.82086    -566.3708    155.38005     137.1651    137.04812     566.3708   0.70612485 
    8180    2922677.8       300.25    -595.4199     155.4153    137.21026     137.0568     595.4199    0.7065119 
    8200    2922312.6    300.71499   -646.76327    155.45055     137.1791    137.03972    646.76327   0.70689896 
    8220    2922358.1    300.62374   -635.81449     155.4858    137.14969    137.04016    635.81449   0.70728601 
    8240      2923268    300.42778   -620.64732    155.52105    137.18591    137.01558    620.64732   0.70767306 
    8260    2923470.3    300.53291   -555.30753     155.5563    137.17651    137.00339    555.30753   0.70806011 
    8280    2923553.8     299.9443   -373.35036    155.59155    137.16111    136.99165    373.35036   0.70844716 
    8300    2924027.4    300.33853   -379.17217     155.6268    137.16675    136.97718    379.17217   0.70883422 
    8320    2924317.9     300.3312   -378.70698    155.66205    137.15664    136.96985    378.70698   0.70922127 
    8340    2923601.1    299.85588   -365.49665    155.69729    137.16806    136.89389    365.49665   0.70960832 
    8360      2923331    300.94971    -480.1708    155.73254    137.14362    136.87464     480.1708   0.70999537 
    8380    2924564.9    299.87281   -583.61694    155.76779    137.17291     136.8722    583.61694   0.71038242 
    8400    2924983.1    300.49851   -651.37254    155.80304    137.21508    136.81874    651.37254   0.71076947 
    8420      2924253    300.13376   -601.06885    155.83829    137.15514    136.81341    601.06885   0.71115653 
    8440      2925652    300.16508   -596.83883    155.87354    137.17367    136.82942    596.83883   0.71154358 
    8460    2925569.9    300.83646   -593.10409    155.90879    137.20373    136.76468    593.10409   0.71193063 
    8480    2925843.8    299.87904   -532.82275    155.94404    137.19372    136.75654    532.82275   0.71231768 
    8500      2926155    299.39998   -585.43694    155.97929    137.17652    136.75732    585.43694   0.71270473 
    8520      2926661     299.8108   -694.55069    156.01454    137.17843    136.74817    694.55069   0.71309179 
    8540    2927304.3     300.1647   -651.26872    156.04979    137.16533    136.76039    651.26872   0.71347884 
    8560    2926570.8     299.9488    -727.5825    156.08504    137.11569    136.74474     727.5825   0.71386589 
    8580    2927673.7    300.24435   -693.93584    156.12029    137.14179    136.73935    693.93584   0.71425294 
    8600      2928578     300.4789   -662.35699    156.15554    137.17753    136.71508    662.35699   0.71463999 
    8620    2928379.9    299.25057   -657.07898    156.19079    137.14179     136.7106    657.07898   0.71502705 
    8640    2927809.9    299.65519   -530.52553    156.22604    137.14794    136.64702    530.52553    0.7154141 
    8660      2928988    300.32485   -537.95161    156.26129     137.1911    136.62817    537.95161   0.71580115 
    8680    2930084.7    300.51829   -553.29062    156.29654    137.17918    136.66038    553.29062    0.7161882 
    8700    2929563.9    300.19444   -612.03569    156.33179    137.12305    136.66119    612.03569   0.71657525 
    8720    2930106.7    299.69027   -610.36593    156.36704    137.14944    136.62941    610.36593   0.71696231 
    8740    2932534.3    300.03795    -728.4402    156.40229    137.19868    136.66273     728.4402   0.71734936 
    8760      2931699    300.08661   -528.76952    156.43754    137.15276    136.63874    528.76952   0.71773641 
    8780    2930896.2    299.82157   -563.85819    156.47279     137.1207    136.60249    563.85819   0.71812346 
    8800    2931459.7    299.94553    -506.8582    156.50803      137.109    136.60964     506.8582   0.71851051 
    8820    2931485.2    300.53557   -494.06225    156.54328    137.08116     136.6078    494.06225   0.71889757 
    8840    2931723.7    300.37685   -700.28327    156.57853    137.06611    136.60315    700.28327   0.71928462 
    8860    2932624.5    299.98747   -670.95218    156.61378    137.07728    136.60324    670.95218   0.71967167 
    8880    2933496.8    299.38977   -677.81664    156.64903    137.08656    136.60388    677.81664   0.72005872 
    8900    2933674.8    299.88499   -855.28637    156.68428    137.03885    136.62898    855.28637   0.72044577 
    8920    2933302.2    299.55183   -694.06475    156.71953    137.01442    136.60526    694.06475   0.72083282 
    8940    2933015.7    298.83851     -613.967    156.75478    136.97053    136.60496      613.967   0.72121988 
    8960    2934574.2    299.67006   -559.25806    156.79003     136.9833    136.63407    559.25806   0.72160693 
    8980    2934127.8    299.42916   -575.78391    156.82528    136.99064    136.57527    575.78391   0.72199398 
    9000    2935380.8    299.10878    -477.0367    156.86053    136.95971    136.63374     477.0367   0.72238103 
    9020    2936126.1    298.84466   -495.57201    156.89578    136.92752    136.66984    495.57201   0.72276808 
    9040    2935364.2    299.20603   -382.32187    156.93103    136.93133    136.59989    382.32187   0.72315514 
    9060    2935633.4    299.33535   -475.13576    156.96628    136.89846    136.61452    475.13576   0.72354219 
    9080    2936379.8    300.03665   -451.64828    157.00153    136.87445    136.64255    451.64828   0.72392924 
    9100    2936823.4    299.59976   -357.91212    157.03678    136.89896    136.60806    357.91212   0.72431629 
    9120    2936457.2    300.27882   -316.40429    157.07203    136.89882    136.56051    316.40429   0.72470334 
    9140    2937697.8    299.57456   -383.10004    157.10728    136.94186    136.54462    383.10004    0.7250904 
    9160    2938568.2    300.00863   -470.21769    157.14253     136.9803    136.51611    470.21769   0.72547745 
    9180    2939590.2    299.53794   -493.76224    157.17778    136.96487    136.54836    493.76224    0.7258645 
    9200    2938777.8    300.63795   -376.75365    157.21303    136.88933    136.55532    376.75365   0.72625155 
    9220    2938495.2    300.73116   -300.54815    157.24828    136.86719    136.53366    300.54815    0.7266386 
    9240    2939962.7    300.82973   -364.83056    157.28353    136.91132    136.52721    364.83056   0.72702566 
    9260    2940501.4    300.71685   -439.65942    157.31877    136.90048    136.53245    439.65942   0.72741271 
    9280    2940067.1    299.63747   -390.65012    157.35402    136.87367    136.50843    390.65012   0.72779976 
    9300    2940584.6    300.62055   -578.36483    157.38927    136.84378    136.53169    578.36483   0.72818681 
    9320    2941509.1    300.53224   -653.81694    157.42452    136.86047    136.52738    653.81694   0.72857386 
    9340    2941504.3    300.86707   -627.03079    157.45977     136.8647    136.49238    627.03079   0.72896092 
    9360    2940895.4    300.88866   -565.88345    157.49502    136.84688    136.45135    565.88345   0.72934797 
    9380    2940765.2     300.8199   -618.62706    157.53027    136.80752    136.45403    618.62706   0.72973502 
    9400    2941324.5    300.69907   -543.84181    157.56552    136.83508    136.42197    543.84181   0.73012207 
    9420    2942219.7    300.98279   -670.55401    157.60077    136.84829    136.41979    670.55401   0.73050912 
    9440    2942535.9    300.28092   -618.08647    157.63602    136.85323    136.39903    618.08647   0.73089617 
    9460    2941964.9    299.59042   -405.27067    157.67127    136.84615    136.34912    405.27067   0.73128323 
    9480    2942819.6    300.45685    -429.6332    157.70652    136.87115    136.33334     429.6332   0.73167028 
    9500    2943101.2    300.41614   -505.14128    157.74177    136.82775    136.35915    505.14128   0.73205733 
    9520    2943220.6    300.42143   -550.18231    157.77702    136.79253    136.36933    550.18231   0.73244438 
    9540      2943479     300.7547   -646.08251    157.81227    136.78479    136.35855    646.08251   0.73283143 
    9560    2942710.6    300.46282   -443.91413    157.84752    136.76336    136.31386    443.91413   0.73321849 
    9580    2943254.2    300.10955   -414.52677    157.88277    136.78602    136.28603    414.52677   0.73360554 
    9600    2944176.2    300.18862   -439.37754    157.91802    136.79609    136.28826    439.37754   0.73399259 
    9620    2943704.4    299.81399   -491.68282    157.95327     136.7793    136.25272    491.68282   0.73437964 
    9640    2944397.3    299.55213   -417.94871    157.98852    136.76583    136.26781    417.94871   0.73476669 
    9660      2945117    300.04766   -465.76901    158.02377    136.76676    136.26979    465.76901   0.73515375 
    9680    2945249.9     299.0397   -363.53933    158.05902    136.72692    136.28524    363.53933    0.7355408 
    9700    2945901.4    299.94373   -519.84808    158.09426    136.72275    136.28916    519.84808   0.73592785 
    9720    2945794.4    299.60989    -435.6602    158.12951    136.74406     136.2326     435.6602    0.7363149 
    9740    2946300.1    299.99843   -522.63325    158.16476    136.80388    136.16605    522.63325   0.73670195 
    9760      2946110    299.43323   -502.40275    158.20001     136.7436    136.18693    502.40275   0.73708901 
    9780    2946208.7    299.55528   -501.57186    158.23526    136.70377    136.20083    501.57186   0.73747606 
    9800      2947772    299.58882    -453.9776    158.27051    136.72119    136.22539     453.9776   0.73786311 
    9820    2948271.6    299.92959   -452.08961    158.30576     136.6903    136.24892    452.08961   0.73825016 
    9840    2947861.3    299.18787   -430.07313    158.34101    136.66889    136.22097    430.07313   0.73863721 
    9860    2947892.5    299.89891   -525.24212    158.37626    136.67271    136.18829    525.24212   0.73902426 
    9880    2949016.8    300.17369   -564.11414    158.41151    136.66767    136.21494    564.11414   0.73941132 
    9900      2948352    300.66356   -518.90028    158.44676      136.591    136.23035    518.90028   0.73979837 
    9920    2947335.3    300.65899   -432.85737    158.48201    136.57482    136.16922    432.85737   0.74018542 
    9940    2947490.1    301.10338   -451.97585    158.51726    136.54813    136.17269    451.97585   0.74057247 
    9960    2949523.5    301.00568   -496.98527    158.55251    136.54851    136.23596    496.98527   0.74095952 
    9980    2949006.7    300.94808   -631.15236    158.58776    136.51629    136.21396    631.15236   0.74134658 
   10000    2949681.1    300.84304   -513.24051    158.62301    136.53936    136.19182    513.24051   0.74173363 
   10020    2950760.7    300.87419   -640.41744    158.65826    136.54315    136.20761    640.41744   0.74212068 
   10040    2950437.7    300.61617   -572.84202    158.69351     136.5219    136.18365    572.84202   0.74250773 
   10060    2950064.5     301.0228   -594.30851    158.72876    136.47164    136.18632    594.30851   0.74289478 
   10080    2950721.6    301.02644   -483.73143    158.76401    136.46168    136.19635    483.73143   0.74328184 
   10100    2952372.6    300.70759   -548.04387    158.79926    136.46051    136.24348    548.04387   0.74366889 
   10120    2952167.8    300.49072   -478.89757    158.83451    136.43724    136.22702    478.89757   0.74405594 
   10140    2953086.1    300.47515   -529.41955    158.86976    136.42155    136.25482    529.41955   0.74444299 
   10160    2954600.3      300.791   -580.49392      158.905    136.44271    136.27331    580.49392   0.74483004 
   10180    2955188.6    300.08203   -583.98715    158.94025    136.45993    136.25303    583.98715    0.7452171 
   10200      2955148    300.08177   -543.00515     158.9755    136.41587    136.26494    543.00515   0.74560415 
   10220    2955478.4    300.24528   -594.36972    159.01075    136.43405    136.23181    594.36972    0.7459912 
   10240    2956319.8    299.90442   -530.48379      159.046    136.41708    136.25734    530.48379   0.74637825 
   10260    2955886.3    299.63753   -440.79789    159.08125    136.41137    136.21288    440.79789    0.7467653 
   10280    2956275.2    299.66964   -409.74118     159.1165    136.37661    136.23533    409.74118   0.74715236 
   10300    2957356.6    299.77711   -375.04925    159.15175    136.38993    136.24167    375.04925   0.74753941 
   10320    2957846.2    300.52927   -269.79829      159.187    136.37844    136.24553    269.79829   0.74792646 
   10340    2956990.3    300.00989   -214.31337    159.22225    136.34577    136.20859    214.31337   0.74831351 
   10360    2958191.6    299.75125   -367.36527     159.2575     136.3391    136.24043    367.36527   0.74870056 
   10380    2958622.1    300.29273   -504.90773    159.29275    136.32622    136.24297    504.90773   0.74908761 
   10400    2957800.5    300.04519   -444.87144      159.328    136.28211    136.21907    444.87144   0.74947467 
   10420      2957400    299.86155    -571.8333    159.36325    136.25211    136.20048     571.8333   0.74986172 
   10440    2958015.8     299.1781   -555.52567     159.3985     136.2671    136.18373    555.52567   0.75024877 
   10460    2958042.1    301.02589   -609.34506    159.43375    136.27894    136.14301    609.34506   0.75063582 
   10480    2957317.9    300.10527   -609.49895      159.469    136.22892    136.12956    609.49895   0.75102287 
   10500    2956381.9    299.40825   -554.92505    159.50425     136.2294    136.05592    554.92505   0.75140993 
   10520    2956569.1    299.71934   -617.08248     159.5395    136.22416     136.0397    617.08248   0.75179698 
   10540    2956332.4    299.63948   -615.18707    159.57475    136.19783    136.02505    615.18707   0.75218403 
   10560    2955953.2    299.93565   -398.56192       159.61    136.15842    136.01693    398.56192   0.75257108 
   10580    2956868.2    299.82164   -332.83111    159.64525    136.22352    135.96399    332.83111   0.75295813 
   10600    2957059.8     299.9579   -595.90764    159.68049    136.22175    135.94454    595.90764   0.75334519 
   10620    2957487.6    300.67807   -632.70736    159.71574    136.25747    135.89857    632.70736   0.75373224 
   10640    2957669.3    299.05244   -645.52016    159.75099    136.29647    135.83805    645.52016   0.75411929 
   10660    2957758.8    299.06124   -686.03789    159.78624    136.26531    135.84325    686.03789   0.75450634 
   10680    2957672.7    299.22409   -679.94568    159.82149    136.27959    135.79511    679.94568   0.75489339 
   10700    2958371.1    299.37523   -706.44971    159.85674    136.26822    135.80855    706.44971   0.75528045 
   10720    2959075.7    299.41371   -541.55134    159.89199    136.29379    135.78547    541.55134    0.7556675 
   10740    2959139.7    299.48944   -613.78331    159.92724    136.25673     135.7954    613.78331   0.75605455 
   10760    2958667.7    299.21905   -467.08168    159.96249    136.24889    135.75163    467.08168    0.7564416 
   10780    2959566.6    299.94863   -469.27249    159.99774    136.29161    135.72041    469.27249   0.75682865 
   10800    2960236.9    299.37525   -392.40076    160.03299    136.33398    135.67906    392.40076   0.75721571 
   10820    2959895.6    300.37948   -539.82358    160.06824    136.30287     135.6645    539.82358   0.75760276 
   10840    2960930.3    299.21718   -658.76798    160.10349    136.30436    135.68056    658.76798   0.75798981 
   10860    2961834.6    300.13863   -655.52798    160.13874    136.29817    135.69829    655.52798   0.75837686 
   10880    2962815.3    299.56079   -741.07613    160.17399    136.29068     135.7208    741.07613   0.75876391 
   10900    2962971.4    300.18275   -762.35674    160.20924    136.25763      135.731    762.35674   0.75915096 
   10920    2963422.7    300.96977   -749.17793    160.24449     136.2466     135.7328    749.17793   0.75953802 
   10940    2964675.8    300.05156    -633.9342    160.27974    136.25911    135.74787     633.9342   0.75992507 
   10960    2964415.7    301.02794   -578.54359    160.31499    136.23919    135.72597    578.54359   0.76031212 
   10980    2964334.3     301.0368   -591.02546    160.35024    136.23773    135.69385    591.02546   0.76069917 
   11000    2965013.2    300.47707   -552.66514    160.38549    136.19897    135.73372    552.66514   0.76108622 
   11020      2966000     300.9203   -743.72121    160.42074    136.22884    135.71929    743.72121   0.76147328 
   11040    2965039.6    300.80327   -662.37922    160.45599    136.19372    135.68052    662.37922   0.76186033 
   11060    2964964.2    300.80041   -517.02051    160.49123     136.1351    135.70568    517.02051   0.76224738 
   11080    2965800.9    300.12573   -453.80111    160.52648    136.13215    135.71711    453.80111   0.76263443 
   11100    2966054.6    299.69604   -485.22544    160.56173    136.13697    135.69412    485.22544   0.76302148 
   11120    2966369.4     300.4253   -558.84277    160.59698    136.11204    135.70358    558.84277   0.76340854 
   11140    2966979.1     300.2448   -564.98643    160.63223    136.06509    135.74851    564.98643   0.76379559 
   11160    2966475.5    300.42828   -465.87735    160.66748    136.00195    135.75869    465.87735   0.76418264 
   11180    2966783.2    299.75806   -426.10504    160.70273    136.03855    135.70647    426.10504   0.76456969 
   11200    2966710.7     300.1289   -372.47452    160.73798     136.0434    135.66856    372.47452   0.76495674 
   11220    2967159.1    300.32267   -356.54135    160.77323    136.05104     135.6517    356.54135    0.7653438 
   11240    2968199.2    299.96288   -421.75591    160.80848    136.04704    135.67349    421.75591   0.76573085 
   11260    2969020.6    300.06406   -497.42687    160.84373    136.01346    135.71479    497.42687    0.7661179 
   11280    2969449.8    300.39583   -575.92307    160.87898    136.01678    135.70135    575.92307   0.76650495 
   11300    2968635.8    300.28274   -651.77213    160.91423    135.98752    135.66362    651.77213     0.766892 
   11320    2968483.7    299.75935   -733.68657    160.94948    135.92252    135.69182    733.68657   0.76727905 
   11340    2969404.9    300.00954    -847.2411    160.98473     135.9214    135.70533     847.2411   0.76766611 
   11360    2969115.7     299.5163   -750.63231    161.01998    135.91045    135.67334    750.63231   0.76805316 
   11380    2968710.4    300.17337   -715.02638    161.05523    135.89091    135.64463    715.02638   0.76844021 
   11400    2969519.3    299.99878    -658.9441    161.09048    135.91593    135.62693     658.9441   0.76882726 
   11420    2969515.3    300.38831   -563.64329    161.12573    135.90755    135.60543    563.64329   0.76921431 
   11440    2969322.7    300.40514   -540.51961    161.16098    135.89254    135.58196    540.51961   0.76960137 
   11460    2969951.3    299.90661   -641.20066    161.19623    135.88204    135.59148    641.20066   0.76998842 
   11480    2970965.6    299.67987   -654.65818    161.23148    135.93584    135.55446    654.65818   0.77037547 
   11500    2971117.6    300.13543   -705.49766    161.26673    135.92885    135.53873    705.49766   0.77076252 
   11520      2971025    299.61495   -620.13306    161.30197    135.91441    135.51929    620.13306   0.77114957 
   11540    2972207.8    299.55495   -648.13735    161.33722    135.89809     135.5599    648.13735   0.77153663 
   11560    2973524.5    299.26579   -615.35198    161.37247    135.90689    135.58155    615.35198   0.77192368 
   11580    2972974.4    299.22165   -561.69846    161.40772    135.86001    135.57363    561.69846   0.77231073 
   11600    2973055.3     299.3579   -409.89505    161.44297     135.8382    135.56948    409.89505   0.77269778 
   11620    2973721.6    299.81965   -478.98473    161.47822    135.83796     135.5705    478.98473   0.77308483 
   11640    2974647.4    299.46352   -658.76554    161.51347    135.81646    135.60458    658.76554   0.77347189 
   11660    2974055.4    299.31389   -591.37281    161.54872    135.78584    135.57857    591.37281   0.77385894 
   11680    2973968.7    298.68317   -580.89062    161.58397    135.78307    135.54781    580.89062   0.77424599 
   11700    2974593.6    298.95606   -642.31835    161.61922    135.76768    135.56209    642.31835   0.77463304 
   11720    2975284.3    299.35459    -758.9286    161.65447    135.74963    135.58202     758.9286   0.77502009 
   11740    2975803.7    299.00238   -769.84966    161.68972    135.75123    135.57453    769.84966   0.77540715 
   11760    2975319.9    299.29334   -779.50008    161.72497    135.72332    135.55081    779.50008    0.7757942 
   11780    2975570.7    299.79106   -883.53811    161.76022     135.7217    135.53431    883.53811   0.77618125 
   11800    2975682.9    299.41573   -861.77644    161.79547    135.70863    135.52294    861.77644    0.7765683 
   11820    2975574.9    300.01313   -725.78748    161.83072     135.7054    135.49173    725.78748   0.77695535 
   11840    2974851.1    299.95584   -636.02394    161.86597    135.64604    135.48855    636.02394    0.7773424 
   11860    2975270.3    299.97239   -574.23102    161.90122    135.63601    135.48815    574.23102   0.77772946 
   11880      2974367    300.37548   -541.91281    161.93647    135.57903    135.47444    541.91281   0.77811651 
   11900    2975360.3    299.69398   -572.79945    161.97172    135.56412     135.5051    572.79945   0.77850356 
   11920    2975253.9    300.45969   -576.32481    162.00697    135.55721    135.47767    576.32481   0.77889061 
   11940    2975880.5    300.12579   -590.69553    162.04222    135.59744    135.43654    590.69553   0.77927766 
   11960    2977928.4    300.66926   -716.82369    162.07746    135.62235    135.47537    716.82369   0.77966472 
   11980    2978144.9    300.70243   -640.36297    162.11271    135.63781    135.44033    640.36297   0.78005177 
   12000    2978606.4    300.40451   -603.55236    162.14796    135.62826     135.4414    603.55236   0.78043882 
   12020    2978728.7    299.85978   -580.85703    162.18321    135.59969    135.44605    580.85703   0.78082587 
   12040    2980207.1    300.06319   -365.23146    162.21846    135.60563     135.4779    365.23146   0.78121292 
   12060    2981226.3    300.50318    -483.6036    162.25371     135.5883     135.5121     483.6036   0.78159998 
   12080    2981873.2    299.85352   -663.87634    162.28896    135.62243    135.47796    663.87634   0.78198703 
   12100    2982414.7    299.18034   -605.61428    162.32421    135.61485    135.48071    605.61428   0.78237408 
   12120    2983841.1    299.03679    -690.8966    162.35946    135.62704     135.5039     690.8966   0.78276113 
   12140      2984576    300.04168   -725.84926    162.39471    135.63405    135.50085    725.84926   0.78314818 
   12160    2983828.3    299.83316   -655.73944    162.42996    135.62497    135.44657    655.73944   0.78353524 
   12180    2983602.4     299.6744   -597.11815    162.46521     135.6138    135.41809    597.11815   0.78392229 
   12200    2983951.4    300.13151   -638.33808    162.50046     135.5896    135.42872    638.33808   0.78430934 
   12220      2985162    300.23434   -581.90966    162.53571    135.59312    135.45077    581.90966   0.78469639 
   12240    2985131.3    299.79654   -586.00082    162.57096    135.58429    135.42882    586.00082   0.78508344 
   12260      2984285    299.20194   -634.03182    162.60621    135.53848    135.40683    634.03182    0.7854705 
   12280    2984291.9    299.64237   -531.62935    162.64146    135.55017    135.36612    531.62935   0.78585755 
   12300    2985541.6    299.38538   -784.78528    162.67671     135.5718    135.37186    784.78528    0.7862446 
   12320    2985616.4    299.71661   -762.11714    162.71196    135.52222    135.39544    762.11714   0.78663165 
   12340      2984596    299.68336   -590.97846    162.74721    135.51769    135.32437    590.97846    0.7870187 
   12360    2984844.7    299.76405   -594.79719    162.78246    135.53356     135.2905    594.79719   0.78740575 
   12380    2985417.5    299.97681   -403.16523    162.81771    135.51349    135.30721    403.16523   0.78779281 
   12400    2984088.7    299.98333   -356.09046    162.85296    135.44411    135.28696    356.09046   0.78817986 
   12420    2984837.2    300.50048   -436.16585     162.8882    135.45057    135.28516    436.16585   0.78856691 
   12440    2985831.1    300.51224   -574.87258    162.92345    135.47069    135.28084    574.87258   0.78895396 
   12460    2986314.2    301.22702   -590.02224     162.9587    135.47228    135.27187    590.02224   0.78934101 
   12480    2986626.9    300.44494   -682.94841    162.99395    135.45643    135.27261    682.94841   0.78972807 
   12500    2986173.8    300.71796   -682.20608     163.0292    135.39285    135.28634    682.20608   0.79011512 
   12520    2986061.6    300.57159   -599.18385    163.06445    135.37224    135.27261    599.18385   0.79050217 
   12540    2985816.6    300.77131   -513.77091     163.0997    135.35883    135.24567    513.77091   0.79088922 
   12560    2986160.5    300.52081   -360.72137    163.13495    135.34932    135.24153    360.72137   0.79127627 
   12580    2986731.5    301.08882   -403.98651     163.1702    135.32516     135.2623    403.98651   0.79166333 
   12600    2987523.7    300.64964   -581.83286    163.20545    135.34555    135.24859    581.83286   0.79205038 
   12620    2988629.5    300.49551   -550.80557     163.2407    135.34272    135.27225    550.80557   0.79243743 
   12640      2989387    300.01398    -717.0998    163.27595    135.32454     135.2955     717.0998   0.79282448 
   12660    2989866.4    300.03191   -624.36044     163.3112    135.33508    135.27746    624.36044   0.79321153 
   12680    2989458.6    299.86998   -562.71412    163.34645    135.31432    135.25057    562.71412   0.79359859 
   12700    2989937.8    299.58625   -468.35561     163.3817    135.28543    135.27194    468.35561   0.79398564 
   12720    2989754.2    300.17385   -279.42926    163.41695    135.28002    135.23987    279.42926   0.79437269 
   12740    2990311.4    300.04439   -369.06174     163.4522    135.30492    135.21101    369.06174   0.79475974 
   12760    2991444.5    299.56633   -446.79197    163.48745    135.28995    135.24804    446.79197   0.79514679 
   12780    2991800.7    300.31201   -471.96834     163.5227    135.22482    135.30012    471.96834   0.79553384 
   12800    2993039.9    299.38747   -595.08638    163.55795    135.26662    135.28518    595.08638    0.7959209 
   12820    2994147.8     299.9706   -553.22916     163.5932    135.24751    135.32521    553.22916   0.79630795 
   12840    2994316.8    298.96455   -574.01889    163.62845    135.22334    135.32788    574.01889     0.796695 
   12860    2994840.7    299.51372   -579.95016    163.66369    135.25515    135.29058    579.95016   0.79708205 
   12880    2995145.9    299.58664   -731.03061    163.69894    135.26355    135.26684    731.03061    0.7974691 
   12900    2995345.5    300.20962    -578.9726    163.73419    135.22218     135.2881     578.9726   0.79785616 
   12920    2995320.1    299.81275   -573.81987    163.76944     135.2073    135.27272    573.81987   0.79824321 
   12940    2995557.4    300.51675   -658.76253    163.80469    135.19595    135.26568    658.76253   0.79863026 
   12960    2997616.8     300.9657   -660.99492    163.83994    135.19086    135.33465    660.99492   0.79901731 
   12980      2997523      301.208   -768.25914    163.87519    135.16366    135.32853    768.25914   0.79940436 
   13000      2997767    300.40382    -575.7969    163.91044    135.17718    135.29691     575.7969   0.79979142 
   13020    2997738.7    300.54599   -587.27942    163.94569    135.17829    135.26543    587.27942   0.80017847 
[...]
   76740    3910996.1    300.75658   -445.92544    276.25078    118.86772    119.10224    445.92544    2.0333259 
   76760    3908643.2    300.31456   -386.30274    276.28603    118.80029    119.08295    386.30274    2.0337129 
   76780    3910051.1    299.75272    -526.7898    276.32128    118.81824    119.09266     526.7898       2.0341 
   76800    3912010.9    300.59371   -504.95812    276.35653    118.82675    119.12862    504.95812     2.034487 
   76820    3911137.4    299.80746   -518.72732    276.39178    118.80689    119.10674    518.72732    2.0348741 
   76840      3910546    299.55333   -457.23303    276.42703    118.81751     119.0629    457.23303    2.0352611 
   76860    3910403.1    299.97738   -405.69768    276.46228    118.82451    119.03636    405.69768    2.0356482 
   76880    3909702.4    299.98789   -385.61811    276.49753    118.81003    119.01435    385.61811    2.0360352 
   76900    3908925.2     299.9755   -479.50832    276.53278    118.78599    118.99961    479.50832    2.0364223 
   76920    3910150.1     300.2152   -471.76999    276.56803    118.83431    118.97333    471.76999    2.0368093 
   76940    3909614.8    299.65964   -337.37973    276.60328    118.79897    118.97727    337.37973    2.0371964 
   76960    3908647.1     299.8747   -266.12162    276.63853     118.7672    118.96448    266.12162    2.0375834 
   76980    3908524.8    299.44821   -249.50968    276.67378    118.76092    118.95188    249.50968    2.0379705 
   77000    3909095.5    299.89434   -177.69793    276.70903    118.76243    118.95258    177.69793    2.0383576 
   77020    3909338.7    299.89159   -270.83522    276.74428    118.77068    118.93657    270.83522    2.0387446 
   77040    3909748.6    299.86552   -268.78103    276.77952    118.77853    118.92603    268.78103    2.0391317 
   77060    3911193.9    299.91342    -305.1946    276.81477    118.76444    118.96895     305.1946    2.0395187 
   77080    3911604.7    300.17426   -201.31022    276.85002    118.77578    118.95495    201.31022    2.0399058 
   77100    3910972.2    300.78204   -116.98569    276.88527    118.80382     118.8925    116.98569    2.0402928 
   77120    3910255.2    300.81665   -78.166254    276.92052       118.76    118.89943    78.166254    2.0406799 
   77140    3910743.1    300.30236   -155.95055    276.95577    118.74414    118.91501    155.95055    2.0410669 
   77160    3912108.7    300.12655   -259.85704    276.99102    118.76556    118.91995    259.85704     2.041454 
   77180    3913200.3    299.59688   -334.43265    277.02627    118.79476    118.90876    334.43265     2.041841 
   77200    3913896.5    299.68288   -386.91325    277.06152    118.75983    118.94976    386.91325    2.0422281 
   77220    3915036.4    300.47751   -366.61926    277.09677    118.75992    118.96917    366.61926    2.0426151 
   77240    3914867.1    299.73253   -291.09787    277.13202    118.75143     118.9574    291.09787    2.0430022 
   77260    3914398.7    300.30983    -307.0813    277.16727    118.74522    118.93426     307.0813    2.0433892 
   77280    3916015.1     300.2508   -348.26884    277.20252    118.75325     118.9602    348.26884    2.0437763 
   77300    3915877.6    300.57208   -357.20153    277.23777     118.7658    118.92833    357.20153    2.0441633 
   77320    3916825.3    300.25064   -382.83467    277.27302     118.7432    118.96462    382.83467    2.0445504 
   77340    3917347.8    300.24281   -330.96049    277.30827    118.77797    118.93055    330.96049    2.0449374 
   77360    3918100.6    299.63239   -354.00861    277.34352     118.8165    118.89971    354.00861    2.0453245 
   77380    3918874.7    300.14861   -315.95231    277.37877    118.80536    118.91924    315.95231    2.0457115 
   77400    3919874.4    299.28417   -393.51699    277.41402    118.81549    118.92432    393.51699    2.0460986 
   77420    3919677.7    299.49474   -167.02061    277.44927    118.79583    118.92293    167.02061    2.0464856 
   77440      3918566    299.91988   -179.19347    277.48452    118.81562    118.85429    179.19347    2.0468727 
   77460    3919359.9    299.09127   -253.09205    277.51977    118.81477    118.86413    253.09205    2.0472597 
   77480    3920228.5    300.16639   -266.00467    277.55501    118.82369    118.86645    266.00467    2.0476468 
   77500    3921627.5    299.50232   -363.92301    277.59026    118.85449    118.86295    363.92301    2.0480338 
   77520    3921438.5    300.00231   -289.32481    277.62551     118.8495    118.84712    289.32481    2.0484209 
   77540    3922200.1     299.1224   -271.85887    277.66076    118.83237    118.87225    271.85887     2.048808 
   77560      3923606    299.87363   -142.99657    277.69601    118.83335    118.89878    142.99657     2.049195 
   77580    3923663.6    299.65865   -168.37941    277.73126    118.80283    118.91598    168.37941    2.0495821 
   77600    3922609.1    300.19732   -190.87038    277.76651    118.77493    118.89685    190.87038    2.0499691 
   77620    3923450.8    299.95422   -293.86422    277.80176    118.78276    118.89944    293.86422    2.0503562 
   77640    3923938.5    300.32777   -284.75168    277.83701    118.76975    118.91216    284.75168    2.0507432 
   77660    3924484.2     300.2444   -218.94007    277.87226    118.76686     118.9165    218.94007    2.0511303 
   77680    3924764.2    300.96481   -322.75679    277.90751    118.73996    118.93684    322.75679    2.0515173 
   77700    3925990.9    300.52976   -229.43043    277.94276    118.75452    118.94434    229.43043    2.0519044 
   77720    3926540.9     300.9882   -278.20712    277.97801    118.72777    118.97272    278.20712    2.0522914 
   77740    3926785.1    300.74203   -221.41141    278.01326    118.74907    118.94369    221.41141    2.0526785 
   77760    3928373.7    300.70962    -286.2338    278.04851    118.76677    118.95899     286.2338    2.0530655 
   77780    3929994.4    300.66007   -358.04993    278.08376    118.80328    118.95642    358.04993    2.0534526 
   77800    3932150.8    300.97038   -394.97193    278.11901    118.81798    118.99188    394.97193    2.0538396 
   77820    3932308.8    300.90659   -490.09351    278.15426    118.79146    119.00815    490.09351    2.0542267 
   77840    3932731.3    300.96867   -331.33518    278.18951    118.78461    119.01271    331.33518    2.0546137 
   77860    3932149.5    300.83823   -244.72858    278.22476     118.7704    118.99426    244.72858    2.0550008 
   77880    3932570.3    300.02165   -214.02994    278.26001     118.7541    119.00826    214.02994    2.0553878 
   77900    3932357.1    300.34068   -153.64217    278.29526    118.75947    118.98136    153.64217    2.0557749 
   77920    3931583.5    300.32348   -223.32403    278.33051    118.75615     118.9462    223.32403    2.0561619 
   77940    3932886.5     300.3186   -195.39776    278.36575    118.75023    118.97649    195.39776     2.056549 
   77960    3933930.8     300.3904   -366.14597      278.401    118.73451    119.00876    366.14597     2.056936 
   77980    3935420.3     299.8146   -454.13133    278.43625    118.70576    119.06758    454.13133    2.0573231 
   78000    3935382.3    300.38648    -384.9427     278.4715    118.68066    119.07655     384.9427    2.0577101 
   78020    3936096.9    299.72683   -425.41383    278.50675    118.66764    119.09616    425.41383    2.0580972 
   78040    3935802.2    299.75504    -263.6736      278.542     118.6656    119.07422     263.6736    2.0584843 
   78060    3933837.1    300.70137   -232.82377    278.57725    118.64477     119.0206    232.82377    2.0588713 
   78080    3933285.7    300.35427   -253.40194     278.6125     118.6267    119.00698    253.40194    2.0592584 
   78100    3934727.1     300.2631   -398.24161    278.64775    118.60648    119.05583    398.24161    2.0596454 
   78120    3934700.3    300.17176   -302.72344      278.683    118.59366    119.05283    302.72344    2.0600325 
   78140    3934303.3    300.12143   -363.62359    278.71825     118.5715      119.048    363.62359    2.0604195 
   78160    3934850.5    299.77373   -293.99094     278.7535    118.58295    119.03801    293.99094    2.0608066 
   78180      3934800    300.03573    -295.2469    278.78875    118.58972    119.01464     295.2469    2.0611936 
   78200      3935135    299.55778   -471.17649      278.824    118.59793    119.00148    471.17649    2.0615807 
   78220    3933717.9    300.35766   -394.50455    278.85925     118.5483    118.99339    394.50455    2.0619677 
   78240    3932645.9    299.76353   -282.56577     278.8945    118.51357    118.98078    282.56577    2.0623548 
   78260    3933623.2    299.85873   -334.95591    278.92975    118.51089      118.998    334.95591    2.0627418 
   78280    3935275.8    299.65209   -377.85782      278.965     118.5171    119.02671    377.85782    2.0631289 
   78300    3935963.8    299.64795   -430.93318    279.00025    118.50382    119.04582    430.93318    2.0635159 
   78320    3936395.2    299.05247   -361.78579     279.0355    118.49841    119.04927    361.78579     2.063903 
   78340    3933629.2    300.26606   -308.55082    279.07075     118.4778    118.97128    308.55082      2.06429 
   78360    3934290.4    299.28211   -307.38796      279.106    118.44517    119.00903    307.38796    2.0646771 
   78380    3937422.5    300.30249   -405.26372    279.14124    118.47969    119.05403    405.26372    2.0650641 
   78400    3936269.5    299.88717   -375.59877    279.17649    118.45756    119.02637    375.59877    2.0654512 
   78420    3937248.3    299.52107    -433.8633    279.21174    118.45395    119.04456     433.8633    2.0658382 
   78440    3939747.2     298.8007   -420.51708    279.24699     118.4926    119.06623    420.51708    2.0662253 
   78460    3940906.9    299.55025    -403.8882    279.28224    118.51481    119.06393     403.8882    2.0666123 
   78480      3939265     299.5222   -347.33525    279.31749    118.45946    119.05491    347.33525    2.0669994 
   78500    3939409.9    300.21592   -270.31512    279.35274    118.44916    119.05462    270.31512    2.0673864 
   78520    3941459.2    299.19295   -283.86057    279.38799    118.49898    119.05145    283.86057    2.0677735 
   78540    3942796.5    299.17054   -363.72286    279.42324    118.50714    119.06862    363.72286    2.0681605 
   78560    3942623.1    299.84642   -383.11091    279.45849    118.46664    119.08907    383.11091    2.0685476 
   78580    3942357.2    299.56489   -344.74221    279.49374    118.47014     119.0625    344.74221    2.0689347 
   78600    3942536.4    299.65419   -299.31462    279.52899     118.4735    119.04951    299.31462    2.0693217 
   78620    3943412.7    300.14367   -473.51487    279.56424    118.46032    119.07421    473.51487    2.0697088 
   78640    3942853.7    300.38847   -414.45033    279.59949     118.4301     119.0727    414.45033    2.0700958 
   78660      3943749    300.59467   -461.18157    279.63474    118.43799    119.07679    461.18157    2.0704829 
   78680    3944081.4    300.08239   -480.79485    279.66999    118.41047    119.09949    480.79485    2.0708699 
   78700    3943231.4    301.13415   -483.60595    279.70524    118.38048    119.08897    483.60595     2.071257 
   78720    3944370.8    299.90722   -419.50324    279.74049    118.42867    119.05991    419.50324     2.071644 
   78740    3944295.7    300.27407    -377.6262    279.77574    118.38433    119.08723     377.6262    2.0720311 
   78760    3943051.1    300.47286    -259.0632    279.81099    118.39086    119.02809     259.0632    2.0724181 
   78780    3943491.3    301.29948    -255.0916    279.84624    118.41053    119.00662     255.0916    2.0728052 
   78800    3944545.8     300.1698   -218.69442    279.88149     118.4429    118.99091    218.69442    2.0731922 
   78820      3944585      300.805   -129.53006    279.91674    118.39854    119.02169    129.53006    2.0735793 
   78840    3943675.1    300.76635   -154.15998    279.95198     118.4058    118.97195    154.15998    2.0739663 
   78860      3943503    300.47136   -169.12753    279.98723    118.42332    118.93419    169.12753    2.0743534 
   78880    3945154.1    300.27057   -231.59606    280.02248    118.42292    118.96941    231.59606    2.0747404 
   78900    3944739.1    300.56726   -267.14677    280.05773    118.42512    118.93971    267.14677    2.0751275 
   78920    3943557.2    299.96114   -163.03718    280.09298    118.38683    118.92756    163.03718    2.0755145 
   78940    3944857.2    299.97307   -129.91554    280.12823    118.42097    118.91751    129.91554    2.0759016 
   78960    3944596.1    299.62479   -96.554344    280.16348    118.41823    118.89743    96.554344    2.0762886 
   78980    3943755.9    299.40137   -90.451156    280.19873    118.43497    118.84035    90.451156    2.0766757 
   79000    3944451.2    301.01677    -97.04962    280.23398    118.40801     118.8734     97.04962    2.0770627 
   79020    3946244.2    299.35351   -182.88958    280.26923    118.43838      118.882    182.88958    2.0774498 
   79040    3946484.4    299.31047   -326.63164    280.30448    118.43163    118.88106    326.63164    2.0778368 
   79060    3945899.1    299.58964    -313.3998    280.33973     118.4337     118.8464     313.3998    2.0782239 
   79080      3946479    300.60174   -344.90665    280.37498    118.39159     118.8912    344.90665     2.078611 
   79100    3947758.8    299.74743    -364.6753    280.41023    118.42754     118.8787     364.6753     2.078998 
   79120      3949028    299.65021   -437.11568    280.44548    118.48897    118.84033    437.11568    2.0793851 
   79140    3950661.3    299.71829   -481.41554    280.48073    118.48146    118.88207    481.41554    2.0797721 
   79160    3951022.5    300.18938   -424.24225    280.51598    118.46161    118.89792    424.24225    2.0801592 
   79180    3952479.6     299.4492   -530.87499    280.55123    118.45206    118.93642    530.87499    2.0805462 
   79200    3952654.9    300.25964   -465.26948    280.58648    118.44129    118.93756    465.26948    2.0809333 
   79220    3952540.8    299.43831   -312.57225    280.62173    118.41111     118.9495    312.57225    2.0813203 
   79240    3953975.5    299.91882   -354.94859    280.65698    118.46785    118.92075    354.94859    2.0817074 
   79260    3955008.5    299.98547   -379.56538    280.69223    118.47345    118.93126    379.56538    2.0820944 
   79280    3955972.8    300.02039   -297.56732    280.72748    118.49437    118.92432    297.56732    2.0824815 
   79300      3957640    299.75921   -404.21094    280.76272    118.51981    118.93396    404.21094    2.0828685 
   79320    3956923.1     300.6376   -345.29909    280.79797    118.50294    118.91442    345.29909    2.0832556 
   79340      3957401    300.95527   -207.14863    280.83322    118.45948    118.95747    207.14863    2.0836426 
   79360    3959659.2    300.87908   -269.49791    280.86847    118.52258    118.94706    269.49791    2.0840297 
   79380    3960339.6    300.56867   -197.16001    280.90372    118.53079    118.94433    197.16001    2.0844167 
   79400    3962647.5    300.85965   -231.85231    280.93897    118.57426    118.95509    231.85231    2.0848038 
   79420    3964342.5    300.72541   -289.42428    280.97422    118.60037    118.96485    289.42428    2.0851908 
   79440    3964688.4     300.2335   -234.35577    281.00947     118.5974    118.96328    234.35577    2.0855779 
   79460    3963825.6    300.84399   -192.93755    281.04472    118.58131    118.93861    192.93755    2.0859649 
   79480    3963462.8    300.06949   -156.66949    281.07997    118.58722    118.90688    156.66949     2.086352 
   79500    3964589.4    300.59246   -251.35186    281.11522    118.59059    118.92239    251.35186     2.086739 
   79520    3965598.3     300.5099   -364.00923    281.15047    118.58765    118.94069    364.00923    2.0871261 
   79540    3964835.6    300.30402   -287.59723    281.18572    118.61882    118.87166    287.59723    2.0875131 
   79560    3964599.6    300.37675   -157.03139    281.22097    118.59662    118.87193    157.03139    2.0879002 
   79580      3966208    300.30976     -238.204    281.25622    118.61677    118.88506      238.204    2.0882872 
   79600    3966898.7    300.11603   -269.70129    281.29147    118.59442    118.91326    269.70129    2.0886743 
   79620    3967089.3    299.70656   -200.77923    281.32672    118.58564    118.91288    200.77923    2.0890614 
   79640    3967598.7    299.94764   -335.50466    281.36197    118.55741    118.94156    335.50466    2.0894484 
   79660    3968581.1    300.11852   -221.21099    281.39722    118.55794    118.95558    221.21099    2.0898355 
   79680    3968443.4    299.94372   -402.52246    281.43247    118.53343    118.96115    402.52246    2.0902225 
   79700    3969768.7    300.15285   -309.30137    281.46772    118.55416    118.96517    309.30137    2.0906096 
   79720    3969304.6    299.61186   -306.69989    281.50297    118.53595    118.95463    306.69989    2.0909966 
   79740    3969387.5    299.89846   -253.20156    281.53821    118.52469    118.95352    253.20156    2.0913837 
   79760    3971873.9    300.25081   -419.08817    281.57346    118.55852    118.97918    419.08817    2.0917707 
   79780    3973126.4    300.31907   -428.14761    281.60871    118.55122    119.00913    428.14761    2.0921578 
   79800    3972685.2    300.86488   -343.46978    281.64396    118.53007    119.00224    343.46978    2.0925448 
   79820    3971597.6    299.06611   -350.77036    281.67921    118.51454    118.97037    350.77036    2.0929319 
   79840    3971988.2    299.90645    -221.0999    281.71446    118.52008    118.96162     221.0999    2.0933189 
   79860    3971647.9    300.17678   -189.13126    281.74971    118.50951    118.94715    189.13126     2.093706 
   79880    3971751.8    300.34446   -249.42391    281.78496    118.51119     118.9337    249.42391     2.094093 
   79900    3972913.2    299.75298   -201.66508    281.82021    118.50814    118.95666    201.66508    2.0944801 
   79920    3974833.1    300.21114   -312.65167    281.85546    118.51801    118.98935    312.65167    2.0948671 
   79940    3974875.4    300.07323   -195.16763    281.89071    118.52007    118.97367    195.16763    2.0952542 
   79960      3974789    300.67495   -385.58884    281.92596    118.53621    118.94001    385.58884    2.0956412 
   79980    3976069.4    300.78397   -397.50869    281.96121    118.52015    118.97957    397.50869    2.0960283 
   80000    3976394.7    300.01484    -371.1133    281.99646    118.55621    118.93825     371.1133    2.0964153 
Loop time of 11467 on 64 procs for 80000 steps with 212040 atoms

Performance: 0.603 ns/day, 39.816 hours/ns, 6.977 timesteps/s
99.8% CPU use with 64 MPI tasks x 1 OpenMP threads

MPI task timing breakdown:
Section |  min time  |  avg time  |  max time  |%varavg| %total
---------------------------------------------------------------
Pair    | 1985.5     | 3445.6     | 4386.3     | 988.2 | 30.05
Bond    | 218.14     | 315.23     | 363.07     | 199.1 |  2.75
Kspace  | 443.58     | 1433.2     | 2990.2     |1625.6 | 12.50
Neigh   | 5901.7     | 5945.2     | 5980.1     |  25.6 | 51.85
Comm    | 188.29     | 226.03     | 284.32     | 134.9 |  1.97
Output  | 2.2135     | 2.349      | 2.5142     |   4.9 |  0.02
Modify  | 76.197     | 91.149     | 99.581     |  53.5 |  0.79
Other   |            | 8.268      |            |       |  0.07

Nlocal:        3313.12 ave        4516 max         488 min
Histogram: 5 1 2 4 2 2 4 6 27 11
Nghost:        17516.8 ave       22945 max        8677 min
Histogram: 4 5 5 2 0 7 11 12 2 16
Neighs:    1.76359e+06 ave  2.8535e+06 max       98376 min
Histogram: 6 2 6 2 0 6 9 17 12 4

Total # of neighbors = 1.1286976e+08
Ave neighs/atom = 532.30409
Ave special neighs/atom = 5.9990568
Neighbor list builds = 80000
Dangerous builds not checked
Total wall time: 3:11:11
