LAMMPS (29 Oct 2020)
OMP_NUM_THREADS environment is not set. Defaulting to 1 thread. (../comm.cpp:94)
  using 1 OpenMP thread(s) per MPI task
####################################################
#    This program is free software: you can redistribute it and/or modify
#    it under the terms of the GNU General Public License as published by
#    the Free Software Foundation, either version 3 of the License, or
#    (at your option) any later version.
#
#    This program is distributed in the hope that it will be useful,
#    but WITHOUT ANY WARRANTY; without even the implied warranty of
#    MERCHANTABILITY or FITNESS FOR A PARTICULAR PURPOSE.  See the
#    GNU General Public License for more details.


units		real        ## defines the units style used herein. More information: https://docs.lammps.org/units.html
atom_style	full        ## defines the atom style used herein. More information: https://docs.lammps.org/atom_style.html

# Styles
pair_style      lj/cut/coul/long 15.0 10.0      ## sets the formula(s) LAMMPS uses to compute pairwise interactions; here, lennard-jones (LJ) with long-range Coulomb interaction. More: https://docs.lammps.org/pair_lj_cut_coul.html
pair_modify     shift no                        ## the shift keyword determines whether a Lennard-Jones potential is shifted at its cutoff to 0.0. More: https://docs.lammps.org/pair_modify.html
kspace_style    pppm 1.0e-4                     ## defines a long-range solver for LAMMPS to compute long-range Coulombic interactions. Note: requires use of a matching pair style, i.e. PPPM with coul/long. More: https://docs.lammps.org/kspace_style.html
bond_style      harmonic                        ## defined based off the forcefield used to construct the system; models the atoms' interactions
angle_style     harmonic
dihedral_style  opls
improper_style  cvff
special_bonds   lj 0 0 1 coul 0 0 1

read_data       100K_TRP.lmps      ## input lammps datafile, equilibriated until structure nears experimental properties
Reading data file ...
  orthogonal box = (230.25087 230.25087 230.25087) to (369.74913 369.74913 369.74913)
  4 by 4 by 4 MPI processor grid
  reading atoms ...
  212040 atoms
  reading velocities ...
  212040 velocities
  scanning bonds ...
  2 = max bonds/atom
  scanning angles ...
  6 = max angles/atom
  scanning dihedrals ...
  15 = max dihedrals/atom
  scanning impropers ...
  2 = max impropers/atom
  reading bonds ...
  236020 bonds
  reading angles ...
  399920 angles
  reading dihedrals ...
  615800 dihedrals
  reading impropers ...
  127960 impropers
Finding 1-2 1-3 1-4 neighbors ...
  special bond factors lj:    0.0      0.0      1.0     
  special bond factors coul:  0.0      0.0      1.0     
     4 = max # of 1-2 neighbors
    10 = max # of 1-3 neighbors
    14 = max # of special neighbors
  special bonds CPU = 1.829 seconds
  read_data CPU = 4.313 seconds

dielectric      1.0
neighbor    	1.0 bin
neigh_modify	delay 0 every 1 check no        ## this is to make sure that the neighbor list is updated every timestep, and the atoms don't get lost as the system is being deformed ##

timestep	    1.0                             ## unit = fs, per "real" unit style
run_style       verlet                          ## defines algorithm used for simulation computation; verlet integration is a numerical method used to integrate Newton's equations of motion.

variable stress equal press*-1                         ## computes stress as the negative of press values
variable engStrain equal (lx-91.07191)/91.07191      ## computes engineering strain; lx_0 must be found and inputted manually (for now)

thermo		    20                                                               ## output log data (headers in thermo_style), recorded at every timestep in numList.txt
thermo_style    custom step vol temp press lx ly lz v_stress v_engStrain         ## data headers of output log file. More: https://docs.lammps.org/thermo_style.html

################# Deformation ##################

fix 1 all npt temp 100 100 100 y 1 1 100.0 z 1 1 100.0      ## stress normal to the x direction can vary; external pressure (y and z) = 1atm ##

fix 2 all deform 1 x scale 2.0 remap x                      ## sets a uniaxial (x-direction) deformation in motion, scaling a set amount (here, 4.0x) the initial length


################# Dumping ##################

reset_timestep 0

dump dump2 all custom 4000 sim.lammpstrj id mol type q xs ys zs ix iy iz

restart 8000 PMP.restart

run 		80000              ## this depends on the overall strain rate, where strain rate = deformScale / runTimeSteps (consider units!)
PPPM initialization ...
WARNING: System is not charge neutral, net charge = 0.034008 (../kspace.cpp:313)
  using 12-bit tables for long-range coulomb (../kspace.cpp:328)
  G vector (1/distance) = 0.20011664
  grid = 36 36 36
  stencil order = 5
  estimated absolute RMS force accuracy = 0.040574601
  estimated relative force accuracy = 0.00012218921
  using double precision FFTW3
  3d grid and FFT values/proc = 2744 900
Neighbor list info ...
  update every 1 steps, delay 0 steps, check no
  max neighbors/atom: 2000, page size: 100000
  master list distance cutoff = 16
  ghost atom cutoff = 16
  binsize = 8, bins = 18 18 18
  1 neighbor lists, perpetual/occasional/extra = 1 0 0
  (1) pair lj/cut/coul/long, perpetual
      attributes: half, newton on
      pair build: half/bin/newton
      stencil: half/bin/3d/newton
      bin: standard
Per MPI rank memory allocation (min/avg/max) = 38.92 | 39.74 | 40.14 Mbytes
Step Volume Temp Press Lx Ly Lz v_stress v_engStrain 
       0    2714603.8    100.15978    14829.197    139.49827    139.49827    139.49827   -14829.197   0.53173761 
      20    2743252.6    103.71353    588.28418    139.53314    140.22053     140.2093   -588.28418   0.53212054 
      40    2760119.5    103.53118    1177.3984    139.56802    140.63225    140.62322   -1177.3984   0.53250348 
      60    2753157.8    103.87202   -191.28753    139.60289    140.43812    140.42734    191.28753   0.53288641 
      80      2746257    103.72495    17.308401    139.63777    140.24751    140.23071   -17.308401   0.53326934 
     100    2749710.8    103.75493  -0.64693518    139.67264    140.33064    140.28886   0.64693518   0.53365228 
     120    2746789.9    102.67533   -487.38304    139.70752    140.24459    140.19082    487.38304   0.53403521 
     140    2739236.3    102.92756   -503.83676    139.74239    140.04218    139.97241    503.83676   0.53441815 
     160    2736958.1    102.48825   -437.65733    139.77727    139.97476    139.88846    437.65733   0.53480108 
     180    2739932.5    102.65443    -376.7135    139.81214    140.04482    139.93551     376.7135   0.53518402 
     200    2733708.1    102.58123     -236.107    139.84702    139.87098    139.75628      236.107   0.53556695 
     220    2734547.8    102.39992   -123.53749    139.88189    139.87688    139.75846    123.53749   0.53594989 
     240    2734909.5    102.16103     546.8973    139.91676    139.88036    139.73862    -546.8973   0.53633282 
     260    2729939.3    102.09624    180.91776    139.95164    139.74568    139.58431   -180.91776   0.53671575 
     280    2732060.5    101.92532    143.42669    139.98651    139.78816    139.61553   -143.42669   0.53709869 
     300    2733586.8    101.66212   -645.31914    140.02139    139.81513     139.6318    645.31914   0.53748162 
     320    2731721.9    101.78557    275.89335    140.05626    139.76271    139.55411   -275.89335   0.53786456 
     340    2729906.5    101.05089   -497.37136    140.09114    139.71779    139.47148    497.37136   0.53824749 
     360    2731955.6    100.96668    57.958702    140.12601    139.77067    139.48864   -57.958702   0.53863043 
     380    2736546.9    101.10888    90.850214    140.16089    139.89423    139.56491   -90.850214   0.53901336 
     400      2733535    100.44508   -392.44723    140.19576    139.78814    139.48241    392.44723    0.5393963 
     420    2735021.7    100.58057   -32.099645    140.23064    139.80359    139.50814    32.099645   0.53977923 
     440    2737379.8    100.69077     194.0467    140.26551    139.85876    139.53864    -194.0467   0.54016216 
     460    2736999.7    100.48683   -207.93088    140.30038    139.84192    139.50138    207.93088    0.5405451 
     480    2734220.1    100.15696   -18.150647    140.33526    139.75498    139.41175    18.150647   0.54092803 
     500    2738090.2    100.28283   -6.1471518    140.37013    139.85252    139.47705    6.1471518   0.54131097 
     520    2738640.7    100.12845    -74.75156    140.40501    139.84345    139.47948     74.75156    0.5416939 
     540    2739210.8    100.13509    -381.7747    140.43988    139.84083    139.47649     381.7747   0.54207684 
     560    2740480.6    99.639414   -100.12371    140.47476    139.86755    139.47985    100.12371   0.54245977 
     580    2740118.5    99.833732   -125.32099    140.50963    139.83735    139.45692    125.32099    0.5428427 
     600    2740954.1    99.708991    44.506909    140.54451    139.82813    139.47402   -44.506909   0.54322564 
     620    2741356.4    99.534806   -389.51041    140.57938    139.80476     139.4832    389.51041   0.54360857 
     640    2742660.2    99.465218    6.0359398    140.61426    139.81867    139.50105   -6.0359398   0.54399151 
     660    2742063.4    99.612681   -206.77253    140.64913    139.76619    139.48848    206.77253   0.54437444 
     680    2739741.4    99.696181     30.94885      140.684    139.67387    139.42789    -30.94885   0.54475738 
     700    2740464.3    99.608399   -50.661741    140.71888    139.67246    139.43153    50.661741   0.54514031 
     720      2742478    99.623062    213.52875    140.75375    139.70636    139.46557   -213.52875   0.54552325 
     740    2740552.4    99.754699   -241.57636    140.78863    139.63327    139.40605    241.57636   0.54590618 
     760    2741356.5    99.674262    120.73656     140.8235    139.64816    139.39756   -120.73656   0.54628911 
     780      2745242    99.606121   -235.72804    140.85838     139.7207    139.48811    235.72804   0.54667205 
     800    2743071.1    99.691636    119.24052    140.89325    139.64052    139.42332   -119.24052   0.54705498 
     820    2741832.5    99.865885   -256.66269    140.92813    139.59226    139.37404    256.66269   0.54743792 
     840    2745223.5    100.22499   -142.31422      140.963    139.66101    139.44322    142.31422   0.54782085 
     860    2744447.9    99.927547   -86.805138    140.99788    139.60697    139.42329    86.805138   0.54820379 
     880    2742574.2    99.720767   -102.53739    141.03275    139.54059    139.35991    102.53739   0.54858672 
     900    2745463.2    100.25037   -256.71626    141.06763    139.57991    139.43293    256.71626   0.54896966 
     920    2748127.9    100.18539   -51.898188     141.1025    139.62963    139.48408    51.898188   0.54935259 
     940    2744556.6    100.15018   -244.81743    141.13737    139.53652    139.36133    244.81743   0.54973552 
     960    2745646.7    100.09812   -174.96035    141.17225    139.55835    139.36044    174.96035   0.55011846 
     980    2748393.6    100.39113   -293.68741    141.20712    139.59256    139.43123    293.68741   0.55050139 
    1000    2745726.8    100.29974   -92.144652      141.242    139.51087    139.34309    92.144652   0.55088433 
    1020    2746424.3    100.07452   -303.29704    141.27687     139.5246    139.33036    303.29704   0.55126726 
    1040    2746637.3    100.25147   -183.60209    141.31175    139.51214    139.31923    183.60209    0.5516502 
    1060    2748878.1    100.48697    -307.4573    141.34662    139.55752    139.35316     307.4573   0.55203313 
    1080    2746277.9    100.12677   -265.97182     141.3815    139.47276    139.27158    265.97182   0.55241606 
    1100    2747363.6     99.97352   -211.88357    141.41637    139.48926    139.27581    211.88357     0.552799 
    1120    2748052.9     100.1133    178.99248    141.45125    139.51063    139.25507   -178.99248   0.55318193 
    1140    2748129.2    100.31116   -261.84614    141.48612    139.48635    139.24884    261.84614   0.55356487 
    1160    2747781.2     100.2105    85.912014    141.52099    139.45893    139.22427   -85.912014    0.5539478 
    1180    2748043.1    99.949436    -156.5159    141.55587    139.44628    139.21586     156.5159   0.55433074 
    1200    2749713.8    99.868453   -104.27625    141.59074    139.48316    139.22937    104.27625   0.55471367 
    1220    2747140.5     99.83998   -207.70728    141.62562    139.39891    139.14887    207.70728   0.55509661 
    1240    2750571.9     99.85438   -85.342426    141.66049    139.46226    139.22511    85.342426   0.55547954 
    1260    2750202.5    99.806799   -399.27713    141.69537     139.4467    139.18768    399.27713   0.55586247 
    1280    2749927.8    99.870697   -32.719126    141.73024    139.41542    139.17075    32.719126   0.55624541 
    1300    2749010.3    99.842207   -265.18611    141.76512    139.38338    139.12206    265.18611   0.55662834 
    1320    2750989.6    99.691569   -54.530481    141.79999    139.42159    139.14984    54.530481   0.55701128 
    1340    2750120.7    99.851025   -182.04073    141.83487    139.39004    139.10317    182.04073   0.55739421 
    1360    2748565.9    99.564247   -13.227543    141.86974    139.33413    139.04612    13.227543   0.55777715 
    1380    2751840.2    99.893241   -174.01516    141.90461    139.40992    139.10189    174.01516   0.55816008 
    1400    2750442.1    100.05257    8.4804265    141.93949    139.34549    139.06132   -8.4804265   0.55854302 
    1420    2750764.2    99.816464    -261.0607    141.97436    139.34202     139.0469     261.0607   0.55892595 
    1440    2750378.7    99.666992   -108.00104    142.00924    139.31357    139.02167    108.00104   0.55930888 
    1460    2751556.2     100.1589   -224.30392    142.04411    139.32212     139.0385    224.30392   0.55969182 
    1480    2750956.4    99.953236   -184.07568    142.07899    139.29924     138.9969    184.07568   0.56007475 
    1500    2750720.7    99.909751   -335.80705    142.11386    139.28407    138.96602    335.80705   0.56045769 
    1520      2751193    100.03377    -186.1504    142.14874    139.27177    138.96805     186.1504   0.56084062 
    1540      2752083    100.11417   -396.06861    142.18361    139.27924    138.97145    396.06861   0.56122356 
    1560    2751272.4    100.09779   -206.08446    142.21849     139.2348    138.94079    206.08446   0.56160649 
    1580    2752249.5    100.30769   -293.31481    142.25336    139.24099    138.94988    293.31481   0.56198942 
    1600    2751976.6     100.0778   -71.366532    142.28823    139.22814    138.91486    71.366532   0.56237236 
    1620    2752290.5    100.15549   -257.95008    142.32311    139.21161    138.91316    257.95008   0.56275529 
    1640    2752274.2    100.07827    -245.9814    142.35798    139.19327    138.89661     245.9814   0.56313823 
    1660    2752437.4    100.09542   -138.33342    142.39286    139.18038    138.88368    138.33342   0.56352116 
    1680    2752630.2    99.932848   -150.35921    142.42773    139.16489    138.87485    150.35921    0.5639041 
    1700    2752119.9    100.23467   -353.19014    142.46261    139.11727    138.86264    353.19014   0.56428703 
    1720    2754149.5    100.38461    -144.5515    142.49748    139.14517    138.90318     144.5515   0.56466997 
    1740    2754065.8    100.30656   -350.60539    142.53236    139.12215    138.88795    350.60539    0.5650529 
    1760    2753903.3    100.38102   -129.31079    142.56723    139.08993    138.87795    129.31079   0.56543583 
    1780    2753437.7    100.15711   -286.70755    142.60211    139.03381    138.87655    286.70755   0.56581877 
    1800    2755904.7    99.960198   -86.323483    142.63698    139.06169    138.93913    86.323483    0.5662017 
    1820    2754718.7    99.938307   -240.23794    142.67186    139.00473    138.90228    240.23794   0.56658464 
    1840    2754950.5    99.752052   -50.791227    142.70673    138.99883    138.88591    50.791227   0.56696757 
    1860    2755728.7    99.856817   -241.29511     142.7416    139.00422    138.88581    241.29511   0.56735051 
    1880    2756745.8    99.932545   -81.741648    142.77648    139.01347    138.89389    81.741648   0.56773344 
    1900    2755574.9    99.674765   -280.97192    142.81135    138.94542    138.86898    280.97192   0.56811638 
    1920    2756429.8    99.847398   -111.00909    142.84623    138.94559    138.87798    111.00909   0.56849931 
    1940    2758399.4    99.812801   -287.77743     142.8811    138.97137    138.91752    287.77743   0.56888224 
    1960    2756064.6    99.705836   -253.50703    142.91598    138.91643    138.82095    253.50703   0.56926518 
    1980    2758055.7    99.634452   -432.22036    142.95085    138.96198    138.84182    432.22036   0.56964811 
    2000    2757545.9    99.728693   -228.57219    142.98573    138.94979    138.79448    228.57219   0.57003105 
    2020    2757437.5    99.718041   -228.20175     143.0206    138.93795    138.76699    228.20175   0.57041398 
    2040      2756411    99.897791   -159.87096    143.05548    138.89961     138.7198    159.87096   0.57079692 
    2060    2758015.9    100.05567   -256.12293    143.09035    138.90936      138.757    256.12293   0.57117985 
    2080      2757515    100.09959   -99.046726    143.12522     138.8789    138.72842    99.046726   0.57156278 
    2100    2756565.3    100.11278   -300.66976     143.1601    138.85329    138.67243    300.66976   0.57194572 
    2120    2758051.4    99.895974   -264.77369    143.19497    138.87668    138.69003    264.77369   0.57232865 
    2140    2758300.7    99.997731   -369.55201    143.22985    138.88645    138.65904    369.55201   0.57271159 
    2160    2758079.1    100.20915   -296.64719    143.26472    138.84808    138.65246    296.64719   0.57309452 
    2180    2757963.3    99.998192   -386.20746     143.2996    138.80922     138.6517    386.20746   0.57347746 
    2200    2759571.3     100.0644    -264.0916    143.33447    138.81993    138.68809     264.0916   0.57386039 
    2220    2759435.5    100.29394   -326.95502    143.36935    138.79766    138.66977    326.95502   0.57424333 
    2240    2759072.1    100.37487    -315.9094    143.40422    138.78546    138.62998     315.9094   0.57462626 
    2260    2759779.3    100.23749   -226.91428     143.4391    138.80365    138.61362    226.91428   0.57500919 
    2280      2761114    100.08083    -162.2179    143.47397    138.82589    138.62475     162.2179   0.57539213 
    2300    2760794.7    100.45773   -386.61859    143.50884    138.79676    138.60411    386.61859   0.57577506 
    2320    2760909.8    100.14054   -222.72445    143.54372    138.79195    138.58101    222.72445     0.576158 
    2340    2762251.6    100.07293   -352.63174    143.57859      138.809    138.59766    352.63174   0.57654093 
    2360    2762120.6    100.08345   -284.11134    143.61347    138.79984    138.56658    284.11134   0.57692387 
    2380    2760943.1    100.01214   -272.97399    143.64834    138.76823    138.50543    272.97399    0.5773068 
    2400    2763587.7    100.17302   -216.87449    143.68322    138.82679    138.54598    216.87449   0.57768974 
    2420    2763121.6    100.12182    -312.7071    143.71809    138.82138    138.49439     312.7071   0.57807267 
    2440    2762611.6     99.87859   -185.36245    143.75297    138.78852    138.46801    185.36245    0.5784556 
    2460    2763533.6    99.975322   -336.89703    143.78784    138.77728    138.49185    336.89703   0.57883854 
    2480    2764254.8    99.946148   -197.22873    143.82272     138.7612    138.51045    197.22873   0.57922147 
    2500    2763173.8    100.01317   -280.19808    143.85759    138.71422     138.4696    280.19808   0.57960441 
    2520    2763828.7      99.9427   -191.95364    143.89246    138.70812    138.47494    191.95364   0.57998734 
    2540    2764941.4    99.835914   -244.40813    143.92734    138.70809    138.49715    244.40813   0.58037028 
    2560    2764045.3    100.04192   -202.03491    143.96221    138.68299    138.44378    202.03491   0.58075321 
    2580    2764770.7    99.746001   -354.56478    143.99709    138.68492    138.44464    354.56478   0.58113614 
    2600      2764093    100.02094   -239.86319    144.03196     138.6457    138.41634    239.86319   0.58151908 
    2620    2765382.2    99.992591   -405.76142    144.06684    138.65235    138.44074    405.76142   0.58190201 
    2640    2764312.9    100.09494   -321.45563    144.10171     138.5925    138.41346    321.45563   0.58228495 
    2660    2764926.4    99.646895   -539.32912    144.13659    138.57932    138.42384    539.32912   0.58266788 
    2680    2764699.6    99.684543   -289.24954    144.17146    138.57335    138.38498    289.24954   0.58305082 
    2700    2764597.4    100.00787   -445.60812    144.20634    138.55601     138.3637    445.60812   0.58343375 
    2720    2763965.9    99.913996   -242.43673    144.24121    138.50302    138.35156    242.43673   0.58381669 
    2740    2764695.6    99.960872   -358.87668    144.27609    138.48139    138.37625    358.87668   0.58419962 
    2760    2765768.4    100.16089   -264.24847    144.31096    138.49392    138.38397    264.24847   0.58458255 
    2780    2764941.9    100.24887    -265.0363    144.34583     138.4608    138.34228     265.0363   0.58496549 
    2800    2765957.8    100.13738   -300.31937    144.38071     138.4806     138.3399    300.31937   0.58534842 
    2820    2766248.1    100.19758   -331.39388    144.41558    138.47469    138.32691    331.39388   0.58573136 
    2840      2766510    100.15328   -395.11134    144.45046    138.46776    138.31352    395.11134   0.58611429 
    2860    2765443.5    100.32575   -309.79776    144.48533    138.41506    138.27946    309.79776   0.58649723 
    2880    2766756.8    100.14382   -324.08953    144.52021    138.44122    138.28561    324.08953   0.58688016 
    2900    2766392.4    100.34411   -296.39358    144.55508    138.42782    138.24742    296.39358    0.5872631 
    2920    2766281.2    99.932662   -359.01137    144.58996     138.4032    138.23311    359.01137   0.58764603 
    2940    2766825.2    100.12534   -275.17336    144.62483    138.40428    138.22588    275.17336   0.58802896 
    2960    2767466.6    100.29354   -195.32116    144.65971    138.40611    138.22276    195.32116    0.5884119 
    2980    2767427.2    100.01576   -343.90387    144.69458    138.37603    138.21752    343.90387   0.58879483 
    3000    2767998.7    99.969128   -205.65143    144.72945    138.36582    138.22294    205.65143   0.58917777 
    3020    2768778.7    100.17164   -459.49874    144.76433    138.37955    138.21487    459.49874    0.5895607 
    3040    2768743.8    100.14779   -168.87336     144.7992    138.37137      138.188    168.87336   0.58994364 
    3060      2767899    99.750778   -510.52087    144.83408    138.33781    138.14609    510.52087   0.59032657 
    3080    2769839.2    99.826199   -261.88872    144.86895    138.39003    138.15749    261.88872    0.5907095 
    3100    2769604.8    99.800093    -541.2002    144.90383    138.37319    138.12935     541.2002   0.59109244 
    3120      2768557    100.16608   -350.06998     144.9387    138.33406    138.08292    350.06998   0.59147537 
    3140      2769503    99.758036    -418.4747    144.97358    138.35839    138.07259     418.4747   0.59185831 
    3160    2769041.1    100.00924   -402.94304    145.00845    138.31044    138.06421    402.94304   0.59224124 
    3180    2769791.7    99.912104   -209.11733    145.04333    138.27649    138.10233    209.11733   0.59262418 
    3200    2768485.4    99.822408   -421.41412     145.0782    138.24581    138.03464    421.41412   0.59300711 
    3220    2770463.6    99.698885   -152.57874    145.11307    138.29863    138.04734    152.57874   0.59339005 
    3240    2769715.2    99.620697   -355.07757    145.14795    138.22907    138.04632    355.07757   0.59377298 
    3260      2769866     99.91368   -343.58347    145.18282    138.23684    138.01291    343.58347   0.59415591 
    3280    2770777.2    99.830735   -431.28744     145.2177    138.27699    137.98508    431.28744   0.59453885 
    3300      2771167    100.08431    -424.6367    145.25257    138.24061    138.00767     424.6367   0.59492178 
    3320    2771781.7    99.991372   -334.35505    145.28745    138.23524    138.01051    334.35505   0.59530472 
    3340    2771548.1    100.14232   -450.16691    145.32232    138.21957     137.9814    450.16691   0.59568765 
    3360    2773651.4    100.07858   -273.89825     145.3572     138.2445    138.02809    273.89825   0.59607059 
    3380    2773031.2    99.821128    -521.6143    145.39207    138.22046    137.98812     521.6143   0.59645352 
    3400    2772925.4    99.910558   -287.42362    145.42695    138.23117    137.93907    287.42362   0.59683646 
    3420    2773570.9    100.03096   -428.72804    145.46182    138.21028    137.95896    428.72804   0.59721939 
    3440    2774880.9    100.10564   -371.27168     145.4967    138.23379    137.96756    371.27168   0.59760232 
    3460    2773285.1    100.08546    -419.3744    145.53157    138.18736    137.90149     419.3744   0.59798526 
    3480    2773795.4    100.19413   -313.19595    145.56644    138.16597    137.91517    313.19595   0.59836819 
    3500      2774927    100.18536   -466.34421    145.60132    138.17621    137.92817    466.34421   0.59875113 
    3520    2774115.2    100.30722   -439.27834    145.63619    138.15008    137.88088    439.27834   0.59913406 
    3540    2773887.3    100.13774   -444.74562    145.67107    138.11454    137.87201    444.74562     0.599517 
    3560    2774933.8    100.29097   -410.89495    145.70594    138.12703    137.87854    410.89495   0.59989993 
    3580    2774808.4     100.2684   -390.18316    145.74082    138.12533    137.84102    390.18316   0.60028286 
    3600    2774889.5    100.14683    -448.2723    145.77569    138.10036    137.83698     448.2723    0.6006658 
    3620    2775956.9     100.2156   -474.32122    145.81057    138.10995    137.84746    474.32122   0.60104873 
    3640    2775903.4    99.961456   -365.41912    145.84544    138.11065    137.81114    365.41912   0.60143167 
    3660      2775850    100.17254   -434.94506    145.88032    138.07105    137.81506    434.94506    0.6018146 
    3680    2776328.9    99.814628    -426.1397    145.91519    138.08034    137.79661     426.1397   0.60219754 
    3700    2776281.2    99.842616   -287.51112    145.95006    138.07032    137.77132    287.51112   0.60258047 
    3720    2775738.3     100.1111   -360.40043    145.98494    138.02033    137.76135    360.40043   0.60296341 
    3740      2776041    100.05412   -405.83632    146.01981    138.00971    137.75407    405.83632   0.60334634 
    3760    2776610.4    99.974857   -271.77259    146.05469    138.02647     137.7327    271.77259   0.60372927 
    3780    2777501.6    100.03912   -378.07353    146.08956    138.03296    137.73754    378.07353   0.60411221 
    3800    2776102.5    99.889282    -268.3674    146.12444    137.98155    137.68658     268.3674   0.60449514 
    3820    2777238.1    100.00463    -374.5306    146.15931    137.99409    137.69752     374.5306   0.60487808 
    3840    2777704.2    99.934292   -341.59331    146.19419    137.95723    137.72457    341.59331   0.60526101 
    3860    2777189.9    99.869984   -442.62737    146.22906    137.91458    137.70881    442.62737   0.60564395 
    3880    2776723.3    99.867862   -326.14182    146.26394    137.89006    137.67732    326.14182   0.60602688 
    3900    2778482.5    99.992019   -488.48732    146.29881    137.90919     137.7126    488.48732   0.60640982 
    3920    2778613.8    100.21682    -365.7586    146.33368    137.88981    137.70564     365.7586   0.60679275 
    3940    2778560.9    99.821842   -583.60297    146.36856    137.89569    137.66433    583.60297   0.60717568 
    3960    2780205.8    100.04695   -442.80447    146.40343     137.9167    137.69204    442.80447   0.60755862 
    3980      2779893    99.986257   -623.55417    146.43831    137.90355    137.65688    623.55417   0.60794155 
    4000    2780156.9    99.841181   -478.18916    146.47318     137.9064    137.63433    478.18916   0.60832449 
    4020    2780101.7    99.953647    -521.7198    146.50806    137.88257    137.62261     521.7198   0.60870742 
    4040    2781722.1    99.905481   -387.70684    146.54293    137.89238    137.66027    387.70684   0.60909036 
    4060    2780924.6    100.01179   -498.14342    146.57781    137.85888    137.62149    498.14342   0.60947329 
    4080    2781837.1    99.906517   -425.97195    146.61268    137.85102    137.64174    425.97195   0.60985622 
    4100    2782446.8    99.751433   -296.58227    146.64756    137.83524    137.65493    296.58227   0.61023916 
    4120    2781628.2    100.06632   -401.18494    146.68243    137.81447    137.60245    401.18494   0.61062209 
    4140    2781316.7    99.880147   -240.73878     146.7173    137.81754    137.55127    240.73878   0.61100503 
    4160    2781771.9    99.894233   -502.75898    146.75218    137.80855    137.55006    502.75898   0.61138796 
    4180    2783276.9    99.861847   -342.59306    146.78705    137.83825    137.56214    342.59306    0.6117709 
    4200      2781960    99.733605   -491.21835    146.82193    137.79223     137.5103    491.21835   0.61215383 
    4220    2783249.8    99.870482   -395.30452     146.8568    137.81675    137.51692    395.30452   0.61253677 
    4240    2783929.2    100.00485   -417.85194    146.89168    137.82427    137.51032    417.85194    0.6129197 
    4260    2783253.8    99.836489   -440.85879    146.92655     137.7954    137.47312    440.85879   0.61330263 
    4280    2783224.4    99.901832    -376.9442    146.96143    137.77343    137.46097     376.9442   0.61368557 
    4300    2783919.6    99.965946   -456.60804     146.9963    137.77112    137.46498    456.60804    0.6140685 
    4320    2784530.4    99.892187   -313.08626    147.03118    137.75801    137.47562    313.08626   0.61445144 
    4340    2784156.2     99.70699   -492.87471    147.06605    137.74474    137.43778    492.87471   0.61483437 
    4360    2785153.2     99.89934   -359.98121    147.10093    137.76233    137.43685    359.98121   0.61521731 
    4380    2786205.5    100.10743   -462.77123     147.1358    137.78059    137.43797    462.77123   0.61560024 
    4400    2785562.7    99.821545   -455.56835    147.17067    137.74772    137.40649    455.56835   0.61598318 
    4420    2786185.7    99.767214   -531.74614    147.20555    137.75402    137.39838    531.74614   0.61636611 
    4440      2786868    100.01527   -513.03286    147.24042    137.74763    137.40584    513.03286   0.61674904 
    4460    2786989.6    99.701987   -477.91572     147.2753     137.7208    137.40607    477.91572   0.61713198 
    4480    2786288.1    99.628776   -436.98685    147.31017    137.69153    137.36815    436.98685   0.61751491 
    4500      2786817    99.746286     -394.808    147.34505    137.67243    137.38077      394.808   0.61789785 
    4520    2787922.2    99.947596   -384.79093    147.37992    137.67745    137.39771    384.79093   0.61828078 
    4540    2786814.1    99.781776   -389.54349     147.4148    137.62367    137.36427    389.54349   0.61866372 
    4560      2787353    99.535905   -296.70167    147.44967    137.61108     137.3709    296.70167   0.61904665 
    4580    2787902.1    99.622982   -408.69142    147.48455    137.61612    137.36045    408.69142   0.61942959 
    4600    2787910.2    99.802803   -358.02777    147.51942    137.59448    137.34997    358.02777   0.61981252 
    4620    2787730.6    100.08695    -494.0882    147.55429    137.56325    137.33983     494.0882   0.62019545 
    4640    2789709.1    99.870881    -450.8206    147.58917    137.61239    137.35576     450.8206   0.62057839 
    4660    2789521.5    99.950244   -487.23264    147.62404    137.59364     137.3328    487.23264   0.62096132 
    4680    2789000.4    100.01415   -452.09304    147.65892      137.568     137.3003    452.09304   0.62134426 
    4700    2789745.4    99.923065   -436.93499    147.69379    137.58226    137.29031    436.93499   0.62172719 
    4720    2789887.5    100.02805   -507.25552    147.72867    137.55867    137.28843    507.25552   0.62211013 
    4740    2789313.7     100.2984   -411.94309    147.76354    137.51784    137.26855    411.94309   0.62249306 
    4760    2789273.1    100.19361   -611.24292    147.79842    137.49469    137.25727    611.24292   0.62287599 
    4780    2790614.8    100.23018   -396.55634    147.83329    137.50407    137.28152    396.55634   0.62325893 
    4800    2790070.5    100.30511   -563.09316    147.86817    137.47358    137.25281    563.09316   0.62364186 
    4820    2789897.8    100.35987   -438.48405    147.90304    137.47633    137.20921    438.48405    0.6240248 
    4840    2790053.4    100.43298    -567.8595    147.93791    137.45716    137.20365     567.8595   0.62440773 
    4860    2790012.8    100.37996   -545.18251    147.97279    137.42505    137.20137    545.18251   0.62479067 
    4880    2789695.6    100.15147   -656.60083    148.00766    137.39337    137.18506    656.60083    0.6251736 
    4900    2789540.6    100.21681   -603.22619    148.04254    137.36967    137.16879    603.22619   0.62555654 
    4920    2790758.1    100.01612   -517.62226    148.07741    137.37761    137.18841    517.62226   0.62593947 
    4940    2790902.7    100.10883   -624.82815    148.11229    137.38222    137.15861    624.82815    0.6263224 
    4960      2790345    100.28107   -407.70494    148.14716    137.33698    137.14408    407.70494   0.62670534 
    4980    2791882.8    100.27421   -487.41505    148.18204    137.36238      137.162    487.41505   0.62708827 
    5000    2791622.6    100.08775   -328.40544    148.21691      137.358    137.12132    328.40544   0.62747121 
    5020    2791695.7    100.27926   -458.70946    148.25179    137.33177    137.11884    458.70946   0.62785414 
    5040    2791651.3    100.10865   -241.10384    148.28666    137.29538    137.12074    241.10384   0.62823708 
    5060    2792850.6    100.37347    -447.3757    148.32154    137.32158    137.12123     447.3757   0.62862001 
    5080    2792171.8    99.864307   -355.45492    148.35641    137.31272    137.06452    355.45492   0.62900295 
    5100    2792974.3    100.11999   -526.80406    148.39128    137.31906    137.06536    526.80406   0.62938588 
    5120    2794011.9    100.16364   -409.16136    148.42616    137.34838     137.0548    409.16136   0.62976881 
    5140    2793204.1    100.25315   -423.04377    148.46103    137.30815    137.02312    423.04377   0.63015175 
    5160    2793800.1    100.14654   -463.45769    148.49591    137.29184    137.03646    463.45769   0.63053468 
    5180    2794188.3    99.785886   -559.27391    148.53078     137.3018    137.01338    559.27391   0.63091762 
    5200    2794534.5    100.11477   -512.15841    148.56566    137.30859    136.99141    512.15841   0.63130055 
    5220    2793858.6    99.941851   -579.90889    148.60053    137.26635    136.96827    579.90889   0.63168349 
    5240    2795086.4    99.827995   -531.31806    148.63541    137.27516    136.98752    531.31806   0.63206642 
    5260    2795303.3     99.79064   -456.53991    148.67028     137.2609    136.98024    456.53991   0.63244935 
    5280    2795490.5    100.05018   -542.81342    148.70516    137.23698    136.98116    542.81342   0.63283229 
    5300    2795340.5    99.875461   -553.75263    148.74003    137.20272    136.97589    553.75263   0.63321522 
    5320      2795983    99.881172   -595.98814     148.7749    137.20025    136.97772    595.98814   0.63359816 
    5340    2796130.8    99.561387    -522.8971    148.80978    137.17842    136.97466     522.8971   0.63398109 
    5360    2795242.1    99.799831   -562.53201    148.84465    137.15529    136.92212    562.53201   0.63436403 
    5380      2797242    99.781922   -481.38917    148.87953    137.19896    136.94439    481.38917   0.63474696 
    5400    2796774.3    99.771429   -476.29432     148.9144    137.18751    136.90086    476.29432    0.6351299 
    5420      2797721    100.00858   -471.91023    148.94928    137.20204    136.90063    471.91023   0.63551283 
    5440    2797409.9    99.591399   -397.29771    148.98415    137.18581    136.86956    397.29771   0.63589576 
    5460    2798757.5    99.718019   -520.08041    149.01903    137.20267    136.88662    520.08041    0.6362787 
    5480    2798397.7    99.676283    -401.2475     149.0539    137.21506    136.82464     401.2475   0.63666163 
    5500    2798774.6    99.480622   -545.96971    149.08878    137.22019    136.80594    545.96971   0.63704457 
    5520    2799866.6    99.436713   -370.19886    149.12365     137.2363    136.81125    370.19886    0.6374275 
    5540    2800250.2    99.625207   -600.19547    149.15852    137.23453    136.79977    600.19547   0.63781044 
    5560    2799780.5    100.06696    -430.6786     149.1934    137.20824    136.77105     430.6786   0.63819337 
    5580    2800687.8    99.747909   -484.07243    149.22827    137.22957    136.76214    484.07243   0.63857631 
    5600    2801103.3    99.694505   -436.39625    149.26315    137.22318    136.75683    436.39625   0.63895924 
    5620    2800532.6    99.955643   -474.14102    149.29802    137.19248    136.72763    474.14102   0.63934217 
    5640    2801544.8    100.15519   -472.93655     149.3329    137.20732    136.73031    472.93655   0.63972511 
    5660    2801658.9     100.1217   -454.18067    149.36777    137.18995    136.72126    454.18067   0.64010804 
    5680    2802185.1    99.970768   -545.74542    149.40265    137.18442    136.72053    545.74542   0.64049098 
    5700    2801646.6     99.97089   -453.87609    149.43752    137.16956    136.67716    453.87609   0.64087391 
    5720    2803301.5    100.24644   -569.81681     149.4724    137.20959     136.6861    569.81681   0.64125685 
    5740    2803057.7    99.909317   -518.50541    149.50727    137.19397    136.65788    518.50541   0.64163978 
    5760    2802839.7    100.18022   -662.34564    149.54214    137.15609    136.65313    662.34564   0.64202271 
    5780    2802754.6    100.24801   -511.68384    149.57702    137.14539    136.62778    511.68384   0.64240565 
    5800    2804044.2    100.29768   -643.75059    149.61189    137.16347    136.64076    643.75059   0.64278858 
    5820    2803241.2    100.26824   -562.22317    149.64677    137.14428     136.5889    562.22317   0.64317152 
    5840      2803549    100.21451   -548.03679    149.68164     137.1459    136.57046    548.03679   0.64355445 
    5860    2803926.3    100.26782   -540.18826    149.71652    137.12547    136.57736    540.18826   0.64393739 
    5880      2803931    100.09193   -499.70546    149.75139    137.12081    136.55043    499.70546   0.64432032 
    5900    2804152.1    99.921609   -511.31495    149.78627    137.11232    136.53786    511.31495   0.64470326 
    5920    2803872.5    100.13636    -465.0677    149.82114    137.06193    136.54265     465.0677   0.64508619 
    5940      2805350    100.23379   -406.40931    149.85602    137.09817     136.5467    406.40931   0.64546912 
    5960    2804707.7     100.3001    -479.0745    149.89089    137.05972    136.52197     479.0745   0.64585206 
    5980    2806394.3    100.20511   -529.41022    149.92577    137.08354    136.54856    529.41022   0.64623499 
    6000    2805304.9    100.14505   -475.86222    149.96064    137.04092    136.50624    475.86222   0.64661793 
    6020    2806494.3    100.08326   -473.20299    149.99551    137.05082    136.52251    473.20299   0.64700086 
    6040    2805887.4    100.11507   -418.06652    150.03039    136.99841    136.51347    418.06652    0.6473838 
    6060    2806440.2    99.804789   -460.31454    150.06526    136.99174    136.51527    460.31454   0.64776673 
    6080    2807575.2    99.946635   -403.43408    150.10014     137.0047    136.52584    403.43408   0.64814967 
    6100    2807110.1    100.14503   -551.85818    150.13501    136.96141    136.51464    551.85818    0.6485326 
    6120    2807794.6    100.03316   -442.21786    150.16989    136.95922    136.51841    442.21786   0.64891553 
    6140    2807525.1    100.02594   -619.73471    150.20476     136.9522     136.4806    619.73471   0.64929847 
    6160    2807658.9    100.26214   -511.33424    150.23964    136.90912    136.49836    511.33424    0.6496814 
    6180      2806916    100.11546   -563.61031    150.27451     136.8612    136.47834    563.61031   0.65006434 
    6200    2808600.7    99.988877   -619.93193    150.30939    136.89031    136.49954    619.93193   0.65044727 
    6220    2808194.6    100.02037   -552.51578    150.34426    136.86435    136.47402    552.51578   0.65083021 
    6240    2808866.5    99.910003   -665.04722    150.37913    136.86468     136.4747    665.04722   0.65121314 
    6260    2808368.7    99.947303   -544.84902    150.41401    136.83862    136.44485    544.84902   0.65159607 
    6280      2808465    99.947944   -589.02677    150.44888    136.81721    136.43925    589.02677   0.65197901 
    6300    2808561.1    99.941867   -562.52233    150.48376    136.79868    136.43077    562.52233   0.65236194 
    6320    2808975.5    100.00876   -563.84368    150.51863    136.81419    136.40382    563.84368   0.65274488 
    6340    2809231.6    100.06569   -505.93108    150.55351    136.79192    136.40686    505.93108   0.65312781 
    6360    2808924.7    99.849778   -445.10653    150.58838    136.76783     136.3844    445.10653   0.65351075 
    6380    2809261.5     99.70554   -478.03698    150.62326    136.78224     136.3548    478.03698   0.65389368 
    6400    2809391.2    99.707095   -372.04875    150.65813    136.76271    136.34899    372.04875   0.65427662 
    6420    2809810.7    99.869214   -546.17419    150.69301    136.74835    136.35211    546.17419   0.65465955 
    6440    2809032.9    99.665354   -451.09987    150.72788    136.72629    136.30482    451.09987   0.65504248 
    6460      2810187    99.862782    -634.3119    150.76275    136.73404    136.32155     634.3119   0.65542542 
    6480    2810007.7    100.01997   -472.81251    150.79763    136.72489    136.29044    472.81251   0.65580835 
    6500    2810527.3    99.904866   -592.61454     150.8325    136.74162    136.26746    592.61454   0.65619129 
    6520    2810391.1     99.74029   -499.78028    150.86738    136.71231    136.25856    499.78028   0.65657422 
    6540      2811705     99.71133   -574.17685    150.90225    136.72657    136.27655    574.17685   0.65695716 
    6560    2811365.4     100.0245   -512.65668    150.93713    136.70745    136.24765    512.65668   0.65734009 
    6580    2812195.6    99.987643   -598.29839      150.972     136.7234    136.24051    598.29839   0.65772303 
    6600      2812279    99.940787   -564.64998    151.00688    136.71249    136.22396    564.64998   0.65810596 
    6620    2812673.2    100.13499   -616.00602    151.04175    136.70656     136.2175    616.00602   0.65848889 
    6640    2813001.2    100.43569   -583.46619    151.07663    136.71321    136.19531    583.46619   0.65887183 
    6660    2813415.4     100.4992   -538.98723     151.1115    136.69557     136.2015    538.98723   0.65925476 
    6680    2814646.7    100.51507   -643.84165    151.14637    136.69879    136.22646    643.84165    0.6596377 
    6700    2813926.3    100.37981   -542.61877    151.18125    136.66034    136.19849    542.61877   0.66002063 
    6720    2815454.4    100.40364   -681.02868    151.21612    136.68167    136.21977    681.02868   0.66040357 
    6740    2814566.7    100.51516   -561.04512      151.251    136.64329    136.18365    561.04512    0.6607865 
    6760    2815699.7    100.07688   -588.62902    151.28587    136.65628    136.19413    588.62902   0.66116943 
    6780    2814636.7    100.47393   -475.29446    151.32075    136.61266    136.15479    475.29446   0.66155237 
    6800    2816905.6    100.21541   -564.40566    151.35562    136.64122    136.20467    564.40566    0.6619353 
    6820    2815875.2    100.08615     -372.753     151.3905    136.59651    136.16804      372.753   0.66231824 
    6840    2816155.9    100.07407   -472.58839    151.42537    136.59341    136.15334    472.58839   0.66270117 
    6860    2816170.1    100.13041   -432.37974    151.46025    136.58238    136.13367    432.37974   0.66308411 
    6880    2816868.8    100.21323    -489.8712    151.49512    136.56914     136.1493     489.8712   0.66346704 
    6900      2817000    100.14619   -504.02561       151.53    136.55843    136.13498    504.02561   0.66384998 
    6920    2817186.9    100.21862    -527.4582    151.56487    136.56536    136.10578     527.4582   0.66423291 
    6940      2818692    100.06128   -596.69932    151.59974    136.59132    136.12129    596.69932   0.66461584 
    6960    2818712.8    99.988165   -565.68454    151.63462      136.551    136.13117    565.68454   0.66499878 
    6980      2819561    99.971273   -734.31632    151.66949    136.56492    136.12695    734.31632   0.66538171 
    7000    2818965.5    99.930853   -540.42991    151.70437    136.55384    136.07795    540.42991   0.66576465 
    7020    2819995.1    99.966162   -684.59648    151.73924    136.57112    136.07915    684.59648   0.66614758 
    7040    2820063.6    100.22516    -511.7334    151.77412      136.565    136.05728     511.7334   0.66653052 
    7060      2820230    99.898133   -730.48514    151.80899    136.55846    136.04057    730.48514   0.66691345 
    7080    2820254.7    100.33129   -459.83606    151.84387    136.54661    136.02231    459.83606   0.66729639 
    7100    2820753.6    100.05226   -649.31895    151.87874    136.54898    136.01277    649.31895   0.66767932 
    7120    2820567.8    100.07156   -525.60446    151.91362    136.54775    135.97382    525.60446   0.66806225 
    7140    2821016.1    99.918894   -647.41119    151.94849    136.52815    135.98374    647.41119   0.66844519 
    7160    2821106.9    99.922947   -603.04589    151.98336    136.50608    135.97889    603.04589   0.66882812 
    7180    2821644.6      100.124   -591.38694    152.01824    136.50318    135.97649    591.38694   0.66921106 
    7200      2821066    99.618209   -589.24801    152.05311    136.47456    135.94593    589.24801   0.66959399 
    7220    2822423.4    99.832736   -542.96727    152.08799    136.47741    135.97732    542.96727   0.66997693 
    7240    2822773.4       99.851   -609.39665    152.12286    136.48352    135.95691    609.39665   0.67035986 
    7260    2822469.5    100.10161   -450.65826    152.15774    136.43775    135.95671    450.65826   0.67074279 
    7280    2823750.1    100.25796   -521.37352    152.19261     136.4479    135.97711    521.37352   0.67112573 
    7300    2823407.5    99.959682   -421.05959    152.22749    136.42749     135.9498    421.05959   0.67150866 
    7320    2824251.3    99.818385   -461.59391    152.26236    136.41578    135.97096    461.59391    0.6718916 
    7340    2823816.2    99.863076   -500.88795    152.29724    136.38248    135.95207    500.88795   0.67227453 
    7360    2825065.7    99.786708   -501.87381    152.33211    136.41625    135.94743    501.87381   0.67265747 
    7380    2824382.3    99.783531    -576.3783    152.36698     136.3865    135.91307     576.3783    0.6730404 
    7400    2825073.6    99.851787   -576.10415    152.40186    136.37824    135.92346    576.10415   0.67342334 
    7420    2825319.9    99.810901   -574.84391    152.43673     136.3798    135.90265    574.84391   0.67380627 
    7440    2825441.7    100.08644    -500.4512    152.47161    136.38143    135.87581     500.4512    0.6741892 
    7460    2825881.4    99.798048   -628.54351    152.50648    136.36726    135.87999    628.54351   0.67457214 
    7480    2826122.7    100.09901     -525.278    152.54136    136.36272    135.86505      525.278   0.67495507 
    7500    2826757.4    100.05884   -657.60225    152.57623    136.36608    135.86115    657.60225   0.67533801 
    7520    2825691.6    99.795633   -556.01151    152.61111    136.31237    135.83239    556.01151   0.67572094 
    7540    2826906.5    100.00584   -697.53316    152.64598    136.30631    135.86579    697.53316   0.67610388 
    7560    2826212.9    99.732709   -509.09121    152.68086    136.27846    135.82918    509.09121   0.67648681 
    7580    2826628.8    100.23961   -638.69712    152.71573    136.27245    135.82413    638.69712   0.67686975 
    7600    2825893.7    100.14995   -516.83395    152.75061    136.23306    135.79706    516.83395   0.67725268 
    7620    2826971.8    100.40269   -639.10951    152.78548    136.24039    135.81055    639.10951   0.67763561 
    7640    2826465.6    100.22974   -611.93737    152.82035    136.18848    135.80699    611.93737   0.67801855 
    7660    2826515.6    100.40638   -615.31462    152.85523    136.17239    135.79445    615.31462   0.67840148 
    7680    2826731.9    100.03153    -624.4348     152.8901    136.17676    135.76951     624.4348   0.67878442 
    7700    2826942.3    100.28777   -461.95303    152.92498     136.1538    135.77154    461.95303   0.67916735 
    7720    2827195.1    100.31463   -533.77696    152.95985    136.14385    135.76265    533.77696   0.67955029 
    7740    2827999.8    100.26968   -427.76704    152.99473    136.14472    135.76946    427.76704   0.67993322 
    7760    2828502.5    100.15346   -456.69437     153.0296    136.11713    135.79017    456.69437   0.68031615 
    7780    2828113.9    100.47833    -331.5159    153.06448    136.10336    135.75432     331.5159   0.68069909 
    7800    2829374.7    100.07089   -520.02422    153.09935    136.10835    135.77892    520.02422   0.68108202 
    7820      2829702    99.967813   -429.26694    153.13423     136.1018    135.77023    429.26694   0.68146496 
    7840      2830893    100.07863   -564.56848     153.1691    136.11544    135.78284    564.56848   0.68184789 
    7860    2830049.5    100.06759   -492.19475    153.20397    136.09693    135.72994    492.19475   0.68223083 
    7880    2831981.6    100.01477   -585.53748    153.23885    136.11567      135.773    585.53748   0.68261376 
    7900    2831951.6    100.08956   -500.85534    153.27372    136.09305    135.76323    500.85534    0.6829967 
    7920      2832726    100.16267   -656.96832     153.3086    136.10712    135.75543    656.96832   0.68337963 
    7940    2832365.3    100.16057   -566.38185    153.34347    136.08558    135.72875    566.38185   0.68376256 
    7960      2833764    100.05181   -596.03833    153.37835    136.11437    135.73619    596.03833    0.6841455 
    7980    2833457.4    100.25744   -608.96841    153.41322    136.09242    135.71253    608.96841   0.68452843 
    8000    2834014.3    100.01291   -646.03746     153.4481    136.10033    135.70048    646.03746   0.68491137 
    8020    2834602.5    100.06622   -656.46358    153.48297    136.08629     135.7118    656.46358    0.6852943 
    8040    2835017.2    100.10774   -592.44568    153.51785    136.07963    135.70746    592.44568   0.68567724 
    8060    2834986.7    100.12351   -672.42386    153.55272    136.06364    135.69112    672.42386   0.68606017 
    8080    2834886.7    99.929207     -584.838    153.58759    136.05308    135.66605      584.838   0.68644311 
    8100    2835729.7    99.822397   -677.23168    153.62247     136.0746    135.65414    677.23168   0.68682604 
    8120    2834696.9    99.637827   -548.75658    153.65734    136.03169    135.61672    548.75658   0.68720897 
    8140    2836312.4     100.1372   -719.89777    153.69222     136.0451    135.64984    719.89777   0.68759191 
    8160    2835837.3    100.00227   -559.28122    153.72709    136.01933    135.62204    559.28122   0.68797484 
    8180    2837295.1    99.968263   -591.34703    153.76197     136.0422    135.63818    591.34703   0.68835778 
    8200    2836133.9    99.924821   -463.13983    153.79684     135.9796    135.61432    463.13983   0.68874071 
    8220    2837099.2    100.01947   -513.96532    153.83172    135.97451     135.6348    513.96532   0.68912365 
    8240    2836883.1    99.836401   -417.77776    153.86659    135.96462    135.60359    417.77776   0.68950658 
    8260    2836532.3    100.02159   -509.84504    153.90147    135.93973    135.58092    509.84504   0.68988951 
    8280    2836744.1    99.992766   -497.80865    153.93634    135.91965    135.58035    497.80865   0.69027245 
    8300    2837552.8    99.872008   -615.33447    153.97121    135.92206    135.58587    615.33447   0.69065538 
    8320    2837941.4    100.14081   -492.49283    154.00609    135.91107    135.58471    492.49283   0.69103832 
    8340    2836483.4    100.02811   -489.00082    154.04096    135.86783    135.52749    489.00082   0.69142125 
    8360    2838161.2    99.974401   -562.59557    154.07584    135.91832    135.52659    562.59557   0.69180419 
    8380    2838400.8    100.00153   -523.36249    154.11071    135.89574    135.52988    523.36249   0.69218712 
    8400    2838806.5    99.895616   -655.18365    154.14559    135.87445    135.53981    655.18365   0.69257006 
    8420    2838487.8    99.806101    -540.7818    154.18046    135.86351    135.50486     540.7818   0.69295299 
    8440      2839359    99.644963   -616.57021    154.21534    135.86712    135.51219    616.57021   0.69333592 
    8460    2839011.8    99.617658   -594.74613    154.25021    135.85071    135.48134    594.74613   0.69371886 
    8480    2839324.4    99.760186    -652.8058    154.28509    135.85736    135.45901     652.8058   0.69410179 
    8500    2839103.4    99.809868   -649.66156    154.31996    135.83781    135.43735    649.66156   0.69448473 
    8520    2839588.9    99.743324   -654.43242    154.35484     135.8386    135.42911    654.43242   0.69486766 
    8540    2838937.4    100.01224   -680.48184    154.38971    135.81338    135.39259    680.48184    0.6952506 
    8560    2839209.2    99.944134   -645.05022    154.42458    135.80026    135.38805    645.05022   0.69563353 
    8580    2839540.2    99.935686   -648.59351    154.45946    135.80488    135.36866    648.59351   0.69601647 
    8600    2838825.7    99.858564   -651.28378    154.49433    135.77379    135.33504    651.28378    0.6963994 
    8620    2839447.8    100.18151   -643.27438    154.52921    135.79143    135.31656    643.27438   0.69678233 
    8640    2839535.3     100.1819   -542.89845    154.56408    135.77947    135.30211    542.89845   0.69716527 
    8660    2840182.2    100.20513   -609.83104    154.59896    135.79016    135.29176    609.83104    0.6975482 
    8680    2839243.3    99.998069   -465.43978    154.63383    135.75342    135.25312    465.43978   0.69793114 
    8700    2840320.2     100.3048   -554.30209    154.66871    135.75884    135.26852    554.30209   0.69831407 
    8720    2840466.1    100.47575   -407.32858    154.70358    135.75657    135.24723    407.32858   0.69869701 
    8740    2841682.5    100.38939   -609.66305    154.73846    135.77264    135.25865    609.66305   0.69907994 
    8760    2841717.6    100.13395   -448.42284    154.77333    135.76155    135.24088    448.42284   0.69946287 
    8780    2842970.9    100.44949   -539.78814     154.8082    135.78816    135.24355    539.78814   0.69984581 
    8800    2842415.8    100.17946    -416.9723    154.84308    135.76193     135.2128     416.9723   0.70022874 
    8820    2843812.6    100.33792   -619.47364    154.87795    135.78389    135.22692    619.47364   0.70061168 
    8840    2843674.4    100.28772    -478.5478    154.91283    135.77008    135.20364     478.5478   0.70099461 
    8860    2843933.5    100.20938   -569.86495     154.9477    135.74397    135.21153    569.86495   0.70137755 
    8880    2844892.9    100.25822   -535.84862    154.98258    135.76029    135.21046    535.84862   0.70176048 
    8900    2845328.2    99.929101   -643.28008    155.01745    135.74151    135.21943    643.28008   0.70214342 
    8920    2845880.3    100.10646   -601.40066    155.05233    135.71378    135.24287    601.40066   0.70252635 
    8940    2845162.6    100.15698   -661.10023     155.0872    135.67978    135.21223    661.10023   0.70290928 
    8960    2846163.8    100.15443   -634.90813    155.12208    135.68988    135.21934    634.90813   0.70329222 
    8980    2846645.3    99.684619   -679.96611    155.15695    135.66802     135.2336    679.96611   0.70367515 
    9000    2846787.4    99.967938   -688.02734    155.19182    135.66461    135.21337    688.02734   0.70405809 
    9020    2846153.2    100.04114   -630.52557     155.2267     135.6193    135.19803    630.52557   0.70444102 
    9040    2847427.1    100.14238   -675.27645    155.26157    135.62584    135.22164    675.27645   0.70482396 
    9060    2847165.2    99.818733   -597.57332    155.29645    135.62489    135.17979    597.57332   0.70520689 
    9080    2847105.6    99.918327   -654.35937    155.33132    135.61695    135.15451    654.35937   0.70558983 
    9100    2847271.6    99.974541   -505.05759     155.3662    135.58382    135.16507    505.05759   0.70597276 
    9120    2847875.2    100.04585    -532.8275    155.40107    135.57546    135.17173     532.8275   0.70635569 
    9140      2847749    99.891506   -497.57408    155.43595    135.55386    135.15694    497.57408   0.70673863 
    9160    2847916.8    100.04746   -496.91693    155.47082    135.52087    135.16749    496.91693   0.70712156 
    9180    2848885.6    100.07741   -532.17336     155.5057    135.52678    135.17724    532.17336    0.7075045 
    9200    2848670.7    99.909361    -401.4659    155.54057    135.50653    135.15694     401.4659   0.70788743 
    9220    2848768.5    99.871412    -536.2751    155.57545    135.44672    135.19095     536.2751   0.70827037 
    9240    2848359.1    100.04056   -400.91075    155.61032    135.40131    135.18655    400.91075    0.7086533 
    9260    2849088.1    100.00314   -526.33554    155.64519    135.42371    135.16849    526.33554   0.70903624 
    9280    2848700.2    99.929669    -410.4779    155.68007    135.39093    135.15252     410.4779   0.70941917 
    9300    2849189.8    99.719697   -539.63612    155.71494    135.38081    135.15558    539.63612    0.7098021 
    9320    2849259.4    99.949577   -526.03057    155.74982    135.38731    135.12213    526.03057   0.71018504 
    9340    2850341.1    99.842964   -579.26351    155.78469    135.39157    135.13891    579.26351   0.71056797 
    9360    2849276.3    99.856391   -639.38468    155.81957     135.3486    135.10107    639.38468   0.71095091 
    9380    2850275.5    99.792695   -599.24242    155.85444    135.35744    135.10939    599.24242   0.71133384 
    9400    2849717.4    99.938121   -630.53028    155.88932    135.30158    135.10847    630.53028   0.71171678 
    9420    2849721.2    99.917315   -566.62266    155.92419    135.27036    135.10961    566.62266   0.71209971 
    9440      2850015     99.79515   -630.85719    155.95907    135.25397    135.10969    630.85719   0.71248264 
    9460      2850303     99.94641   -664.96411    155.99394    135.23405    135.11304    664.96411   0.71286558 
    9480    2850528.7    100.08441   -627.97211    156.02881    135.21862    135.10895    627.97211   0.71324851 
    9500    2850352.4    99.851858    -713.2912    156.06369    135.22111    135.06792     713.2912   0.71363145 
    9520    2851359.5    100.05182   -702.59931    156.09856    135.24195    135.06463    702.59931   0.71401438 
    9540    2850782.1    99.693868   -691.73182    156.13344    135.20586    135.04316    691.73182   0.71439732 
    9560    2851009.1    99.949231   -627.09561    156.16831    135.18671    135.04288    627.09561   0.71478025 
    9580    2850777.2    99.827195   -610.62783    156.20319    135.17432    135.01413    610.62783   0.71516319 
    9600    2851805.2     99.83077   -641.12512    156.23806    135.17684    135.03014    641.12512   0.71554612 
    9620    2851650.3    100.08597   -623.73686    156.27294    135.16223    135.00727    623.73686   0.71592905 
    9640    2852157.4    99.964989   -605.20635    156.30781    135.16785    134.99554    605.20635   0.71631199 
    9660    2852281.1    100.04572   -533.07024    156.34269    135.16524    134.97388    533.07024   0.71669492 
    9680      2852660    99.998968    -562.0261    156.37756    135.15821    134.96872     562.0261   0.71707786 
    9700    2852460.6     100.0587   -435.72313    156.41243    135.14228     134.9451    435.72313   0.71746079 
    9720    2853630.5    100.08579   -554.84247    156.44731     135.1552    134.95746    554.84247   0.71784373 
    9740    2854092.9    100.26616   -445.31722    156.48218     135.1313    134.97311    445.31722   0.71822666 
    9760    2854338.6    99.986116   -557.77643    156.51706    135.14069    134.94527    557.77643    0.7186096 
    9780      2855154     99.83048   -482.49697    156.55193    135.15414    134.94032    482.49697   0.71899253 
    9800    2855169.8    100.17044   -489.14606    156.58681    135.13692    134.92821    489.14606   0.71937546 
    9820      2855633    99.964635   -518.77573    156.62168     135.1243    134.93265    518.77573    0.7197584 
    9840    2855826.8    100.02498    -521.9868    156.65656    135.12313    134.91294     521.9868   0.72014133 
    9860    2856390.4    100.05491   -584.97261    156.69143    135.12952    134.90315    584.97261   0.72052427 
    9880    2856229.8    100.13982   -537.39094    156.72631    135.10878    134.88625    537.39094    0.7209072 
    9900    2857182.9    99.964413   -668.11933    156.76118    135.11501    134.89502    668.11933   0.72129014 
    9920    2857138.7    100.04557   -494.60849    156.79605     135.0941    134.88381    494.60849   0.72167307 
    9940    2858088.2    99.966214   -662.09308    156.83093    135.11449    134.87827    662.09308     0.722056 
    9960    2858029.4    100.07134   -607.49867     156.8658    135.11336    134.84664    607.49867   0.72243894 
    9980    2859586.4    99.836219   -901.24431    156.90068    135.13704    134.86647    901.24431   0.72282187 
   10000    2858923.6    99.696765   -660.03058    156.93555    135.11391    134.82832    660.03058   0.72320481 
   10020    2859434.6    99.833268   -857.81927    156.97043    135.12631    134.81009    857.81927   0.72358774 
   10040    2858720.2    99.839637   -646.27094     157.0053    135.08357    134.78911    646.27094   0.72397068 
   10060    2859716.2    99.810484   -790.54632    157.04018    135.09143    134.79828    790.54632   0.72435361 
   10080    2859703.2    99.696967   -542.96244    157.07505    135.08213    134.77701    542.96244   0.72473655 
   10100    2859434.1    99.732035   -790.76143    157.10993    135.03351    134.78293    790.76143   0.72511948 
   10120    2859949.4    100.10747   -529.62889     157.1448    135.02339    134.78741    529.62889   0.72550241 
   10140    2860041.3    99.805658   -755.16139    157.17968    135.02385    134.76137    755.16139   0.72588535 
   10160    2860182.2    99.957428   -505.33449    157.21455     135.0135    134.74845    505.33449   0.72626828 
   10180    2859521.3     100.1057   -533.88528    157.24942    134.98334    134.71752    533.88528   0.72665122 
   10200    2859710.1    100.16228   -459.90568     157.2843    134.96822    134.71163    459.90568   0.72703415 
   10220    2859814.8    99.915889   -460.32352    157.31917     134.9573    134.69761    460.32352   0.72741709 
   10240    2860444.4    100.18717   -561.77114    157.35405    134.94765    134.70704    561.77114   0.72780002 
   10260      2860507    100.12306   -474.00595    157.38892    134.93618    134.69158    474.00595   0.72818296 
   10280    2860881.6    100.46594   -560.83213     157.4238    134.93566    134.67989    560.83213   0.72856589 
   10300    2861476.8    100.27413   -492.59101    157.45867    134.91857    134.69514    492.59101   0.72894882 
   10320    2861971.7    100.48523   -628.23814    157.49355    134.92225    134.68492    628.23814   0.72933176 
   10340    2862027.8    100.58862   -555.69294    157.52842    134.93043    134.64959    555.69294   0.72971469 
   10360    2861722.6    100.62273   -649.37392     157.5633    134.90603    134.62977    649.37392   0.73009763 
   10380    2862431.7    100.40178   -589.53803    157.59817    134.89426    134.64508    589.53803   0.73048056 
   10400    2862932.5    100.10296   -618.87889    157.63304    134.87825    134.65482    618.87889    0.7308635 
   10420    2863687.5    100.48758   -637.25341    157.66792    134.89353    134.64529    637.25341   0.73124643 
   10440      2864222    100.14972   -610.45804    157.70279    134.88966     134.6445    610.45804   0.73162936 
   10460    2865243.3    100.13146   -639.62346    157.73767    134.91421    134.63823    639.62346    0.7320123 
   10480    2866064.3    100.35737   -621.57985    157.77254    134.92069    134.64057    621.57985   0.73239523 
   10500    2865950.8    100.36253   -677.89541    157.80742    134.89794    134.62819    677.89541   0.73277817 
   10520    2866603.1    100.02245   -600.73336    157.84229    134.91058    134.61646    600.73336    0.7331611 
   10540    2867584.2    100.23294   -644.31272    157.87717     134.9077    134.63566    644.31272   0.73354404 
   10560    2867647.4    100.11174   -603.12853    157.91204    134.87347    134.64306    603.12853   0.73392697 
   10580    2868114.3    100.24184   -716.20369    157.94692    134.87123    134.63748    716.20369   0.73430991 
   10600    2868992.6    100.08644   -516.45633    157.98179    134.87964    134.64059    516.45633   0.73469284 
   10620    2868996.7     99.89944   -687.76426    158.01666    134.85295    134.63771    687.76426   0.73507577 
   10640      2868750    99.908347   -513.96022    158.05154    134.84945    134.59992    513.96022   0.73545871 
   10660      2869780    99.967498   -622.72255    158.08641    134.85183    134.61617    622.72255   0.73584164 
   10680    2870042.7    99.770135   -433.45975    158.12129    134.83917    134.61143    433.45975   0.73622458 
   10700    2869981.5    100.07953   -541.93014    158.15616    134.84654    134.57152    541.93014   0.73660751 
   10720    2870280.8    100.24638   -465.75444    158.19104    134.85174     134.5507    465.75444   0.73699045 
   10740    2870892.4    100.11111   -565.75793    158.22591    134.85248    134.54896    565.75793   0.73737338 
   10760      2870099     99.79965   -377.84713    158.26079    134.82214     134.5124    377.84713   0.73775632 
   10780    2870583.8    99.729733   -552.20089    158.29566    134.81329    134.51432    552.20089   0.73813925 
   10800    2871559.4    99.850082    -454.6937    158.33054    134.80797    134.53571     454.6937   0.73852218 
   10820    2872121.9    100.02949   -509.05727    158.36541    134.82619    134.51424    509.05727   0.73890512 
   10840    2871470.4    99.770759   -465.91872    158.40029    134.80336    134.47689    465.91872   0.73928805 
   10860    2872252.2    100.03098   -535.69547    158.43516    134.79354    134.49369    535.69547   0.73967099 
   10880    2873520.5    100.12826   -594.79317    158.47003    134.81267    134.50438    594.79317   0.74005392 
   10900    2873423.2    99.621457   -603.33319    158.50491    134.79783    134.48504    603.33319   0.74043686 
   10920    2873640.4    99.748211   -722.35495    158.53978    134.77029     134.4931    722.35495   0.74081979 
   10940    2874399.8    99.863018   -590.22728    158.57466    134.77525     134.4941    590.22728   0.74120272 
   10960    2873874.1    99.902704   -712.08334    158.60953    134.75665    134.45849    712.08334   0.74158566 
   10980    2874566.1    99.827359   -584.02704    158.64441    134.73959    134.47833    584.02704   0.74196859 
   11000    2874775.6    99.848597     -710.403    158.67928    134.73986    134.45831      710.403   0.74235153 
   11020    2874961.3    99.721137   -661.02123    158.71416      134.735    134.44229    661.02123   0.74273446 
   11040    2874980.2       100.23   -711.69319    158.74903     134.7125    134.43609    711.69319    0.7431174 
   11060    2874782.9    99.859198   -689.39719    158.78391    134.69581    134.41399    689.39719   0.74350033 
   11080    2875480.3     100.1597   -643.50085    158.81878    134.69327    134.41962    643.50085   0.74388327 
   11100    2874833.1    100.10073   -650.87333    158.85365    134.64096    134.41205    650.87333    0.7442662 
   11120    2875019.4    99.990082   -594.73305    158.88853    134.63657    134.39564    594.73305   0.74464913 
   11140    2875395.1    100.00727   -574.70055     158.9234    134.62514    134.39512    574.70055   0.74503207 
   11160    2875497.7    100.36838   -513.85815    158.95828    134.60471    134.39082    513.85815     0.745415 
   11180    2875385.3    100.25324   -507.91207    158.99315    134.59616    134.36463    507.91207   0.74579794 
   11200    2875937.4    100.22954   -427.93067    159.02803    134.61278    134.34437    427.93067   0.74618087 
   11220      2876408    100.47065   -418.09192     159.0629    134.59549    134.35415    418.09192   0.74656381 
   11240    2876168.9    100.24498   -485.31918    159.09778    134.57679    134.33219    485.31918   0.74694674 
   11260    2876782.5    100.19502    -489.0898    159.13265     134.5763     134.3319     489.0898   0.74732968 
   11280      2877136    100.11592   -470.41401    159.16753      134.563    134.33224    470.41401   0.74771261 
   11300    2877102.5    100.15832   -565.88512     159.2024    134.54537    134.31885    565.88512   0.74809554 
   11320    2877538.3    99.834089   -519.41448    159.23727    134.52358    134.33153    519.41448   0.74847848 
   11340    2878277.4     99.94843   -583.40376    159.27215    134.53207    134.32814    583.40376   0.74886141 
   11360    2878911.7    99.800652   -539.93237    159.30702    134.53439    134.32601    539.93237   0.74924435 
   11380    2879160.1    100.15577   -650.52315     159.3419    134.51881    134.32374    650.52315   0.74962728 
   11400    2879888.3     100.0027   -631.31803    159.37677    134.49542    134.35169    631.31803   0.75001022 
   11420    2880165.7    99.980715   -611.77472    159.41165    134.47782    134.35281    611.77472   0.75039315 
   11440    2880099.8    99.861063   -697.51206    159.44652    134.45517    134.34298    697.51206   0.75077608 
   11460    2880779.8    99.828605   -671.00267     159.4814    134.48196    134.31855    671.00267   0.75115902 
   11480    2881361.5     99.99339   -711.86463    159.51627    134.48185    134.31641    711.86463   0.75154195 
   11500    2881773.4    99.991313   -644.64478    159.55115    134.44893    134.33913    644.64478   0.75192489 
   11520    2881044.8    99.976534   -811.10951    159.58602    134.40509    134.31962    811.10951   0.75230782 
   11540    2882615.4    100.15398    -699.1229    159.62089    134.44058    134.32801     699.1229   0.75269076 
   11560    2882713.1    100.28804   -756.51824    159.65577     134.4069    134.33688    756.51824   0.75307369 
   11580    2882554.6     100.0403    -619.2466    159.69064    134.37305    134.33399     619.2466   0.75345663 
   11600    2882972.8    100.05849   -636.69442    159.72552    134.38216    134.31503    636.69442   0.75383956 
   11620    2883536.1    100.22673   -491.82652    159.76039    134.40442     134.2897    491.82652   0.75422249 
   11640    2883402.1    100.13849   -542.09245    159.79527    134.37354    134.28501    542.09245   0.75460543 
   11660    2883091.5    100.06008   -487.32209    159.83014    134.36529    134.24949    487.32209   0.75498836 
   11680    2884165.5    100.03079   -502.80031    159.86502    134.35143    134.28406    502.80031    0.7553713 
   11700    2884092.6    99.912347   -472.53214    159.89989    134.33749     134.2653    472.53214   0.75575423 
   11720      2884066    99.856984   -511.59757    159.93477    134.33922    134.23306    511.59757   0.75613717 
   11740      2884075     99.95732    -445.7966    159.96964    134.33486    134.20857     445.7966    0.7565201 
   11760    2885391.8    99.984754   -526.42276    160.00452    134.33913    134.23631    526.42276   0.75690304 
   11780      2884445    99.797514   -481.93376    160.03939    134.31217    134.18996    481.93376   0.75728597 
   11800    2884961.6    99.801963   -600.62598    160.07426    134.32112    134.17581    600.62598    0.7576689 
   11820    2885115.8     99.92647    -535.5219    160.10914    134.30408    134.17077     535.5219   0.75805184 
   11840    2885319.3    99.918673   -532.55289    160.14401    134.28441    134.17066    532.55289   0.75843477 
   11860    2884342.6    99.926949    -568.6689    160.17889    134.25063    134.12979     568.6689   0.75881771 
   11880    2885417.7    99.976716    -581.6589    160.21376    134.25095    134.15026     581.6589   0.75920064 
   11900    2885344.4    99.761623   -595.77991    160.24864     134.2243    134.14428    595.77991   0.75958358 
   11920    2884411.4    100.05496   -612.85854    160.28351    134.18543    134.11056    612.85854   0.75996651 
   11940    2884935.3    99.990163   -670.39607    160.31839    134.16641    134.12475    670.39607   0.76034944 
   11960    2885394.5    100.24726   -636.28658    160.35326    134.17484     134.1085    636.28658   0.76073238 
   11980    2886040.6    100.10853   -711.51886    160.38814    134.16698    134.11722    711.51886   0.76111531 
   12000    2885710.7    99.842617   -672.41672    160.42301    134.14304    134.09667    672.41672   0.76149825 
   12020    2886555.9    99.854203   -676.31809    160.45788    134.14448    134.10535    676.31809   0.76188118 
   12040    2886034.2    100.13371   -699.40357    160.49276    134.12407    134.07238    699.40357   0.76226412 
   12060    2886461.9    100.07448   -706.40351    160.52763    134.12227    134.06491    706.40351   0.76264705 
   12080    2886215.3    99.976492   -616.55828    160.56251    134.10992    134.03668    616.55828   0.76302999 
   12100    2886692.4    100.10449    -571.5237    160.59738    134.09899    134.04065     571.5237   0.76341292 
   12120    2886407.6    99.955379    -583.7754    160.63226    134.07393    134.02338     583.7754   0.76379585 
   12140    2887268.5    99.780753   -593.43652    160.66713    134.07801    134.03017    593.43652   0.76417879 
   12160    2887737.6    99.843786   -588.19545    160.70201     134.0847    134.01617    588.19545   0.76456172 
   12180    2887655.7    99.798385   -532.94649    160.73688    134.07911    133.98887    532.94649   0.76494466 
   12200    2887362.3    99.963941   -517.43249    160.77176    134.06198    133.96331    517.43249   0.76532759 
   12220    2888239.9    99.996742   -406.26046    160.80663    134.07467     133.9623    406.26046   0.76571053 
   12240    2889424.9    99.953092   -549.49764     160.8415    134.06398    133.99889    549.49764   0.76609346 
   12260    2888808.5    99.910349   -451.86728    160.87638    134.01708    133.98812    451.86728    0.7664764 
   12280      2890200    99.902419   -508.88624    160.91125    134.04591    133.99478    508.88624   0.76685933 
   12300    2889850.1    99.934595   -476.95107    160.94613    134.01363     133.9818    476.95107   0.76724226 
   12320    2890842.2     99.93978   -560.79498      160.981      134.013    133.99939    560.79498    0.7676252 
   12340    2890208.7      99.8359   -537.93085    161.01588    133.99735    133.95666    537.93085   0.76800813 
   12360    2891430.2    100.00869   -590.30263    161.05075    133.99834    133.98326    590.30263   0.76839107 
   12380    2890629.3    100.07222   -580.18375    161.08563    133.95833    133.95715    580.18375     0.768774 
   12400    2891559.6    99.921025   -696.80383     161.1205    133.96702    133.96257    696.80383   0.76915694 
   12420    2892318.7    100.16413   -705.49781    161.15538    133.98138    133.95438    705.49781   0.76953987 
   12440      2893027    100.15011   -722.73389    161.19025    133.97403    133.96554    722.73389    0.7699228 
   12460    2893272.3    100.21027   -692.72435    161.22512    133.98907    133.93288    692.72435   0.77030574 
   12480    2893789.1    100.31072   -743.52903       161.26    134.00578    133.91113    743.52903   0.77068867 
   12500    2894824.3    100.24458   -744.84931    161.29487    134.01533    133.92053    744.84931   0.77107161 
   12520    2893828.4    100.08598   -689.06088    161.32975    133.98462     133.8762    689.06088   0.77145454 
   12540    2894292.4      100.233   -678.22695    161.36462    133.98781    133.86554    678.22695   0.77183748 
   12560    2894721.1    100.38935    -570.3601     161.3995    133.97281    133.87142     570.3601   0.77222041 
   12580    2895701.9    100.27975   -624.02142    161.43437    133.98394    133.87673    624.02142   0.77260335 
   12600      2894965    100.24545   -577.02946    161.46925    133.97028     133.8274    577.02946   0.77298628 
   12620    2896274.8    100.25453   -614.93908    161.50412    133.97974    133.84958    614.93908   0.77336921 
   12640      2896332    100.12592    -573.7233      161.539    133.94277    133.86027     573.7233   0.77375215 
   12660    2896516.2    100.25857   -595.22606    161.57387    133.93453    133.84812    595.22606   0.77413508 
   12680    2896595.9    100.19374   -556.53525    161.60875    133.93572    133.82173    556.53525   0.77451802 
   12700    2897720.3    100.21927     -511.614    161.64362    133.94932    133.83121      511.614   0.77490095 
   12720    2897818.9    99.920748    -522.5488    161.67849    133.94012    133.81608     522.5488   0.77528389 
   12740      2897705    100.12886   -538.47371    161.71337    133.93176    133.79031    538.47371   0.77566682 
   12760    2898491.1     100.0038   -551.35509    161.74824    133.93483    133.79469    551.35509   0.77604976 
   12780    2898478.6     100.0651   -464.99619    161.78312    133.93157    133.76853    464.99619   0.77643269 
   12800    2898969.9    99.936813   -518.59286    161.81799    133.95441    133.73955    518.59286   0.77681562 
   12820    2899192.2    99.964069   -536.27426    161.85287    133.93498     133.7404    536.27426   0.77719856 
   12840    2900346.7    100.01518   -581.28238    161.88774    133.96677    133.73308    581.28238   0.77758149 
   12860    2900259.6    100.09494   -580.93074    161.92262    133.95147    133.71554    580.93074   0.77796443 
   12880    2900469.9    99.751777   -582.22164    161.95749    133.92627    133.72159    582.22164   0.77834736 
   12900    2900865.9    100.07371   -521.82777    161.99237    133.91545    133.72187    521.82777    0.7787303 
   12920    2901313.7    99.993374   -593.98217    162.02724    133.90258    133.72657    593.98217   0.77911323 
   12940    2901058.1     100.1022   -558.22752    162.06211    133.86584    133.72271    558.22752   0.77949616 
   12960    2902542.5    100.15008   -631.77741    162.09699    133.89297    133.73524    631.77741    0.7798791 
   12980      2902939     100.1999   -701.95305    162.13186    133.88328    133.73442    701.95305   0.78026203 
   13000    2902914.3    100.10525   -692.90717    162.16674    133.86349    133.72429    692.90717   0.78064497 
   13020    2903496.9    100.28579   -762.77256    162.20161    133.84247    133.74337    762.77256    0.7810279 
[...]
   76740    4041611.6    100.08389   -147.69808    273.31198    122.60907    120.60722    147.69808    2.0010569 
   76760    4041659.9    100.20528     -214.799    273.34686    122.60227    120.59996      214.799    2.0014398 
   76780    4041958.7    100.06937   -152.53417    273.38173    122.62167    120.57441    152.53417    2.0018228 
   76800    4043438.5    100.12578   -249.42995    273.41661    122.62557    120.59933    249.42995    2.0022057 
   76820    4043122.4    99.972403   -201.44109    273.45148    122.61219    120.58768    201.44109    2.0025886 
   76840    4043988.5    100.05668   -218.21847    273.48636    122.63139    120.57925    218.21847    2.0029716 
   76860    4044016.7    100.08803     -125.027    273.52123    122.61581    120.58005      125.027    2.0033545 
   76880    4044679.3    99.922761   -261.61652    273.55611    122.61119    120.58897    261.61652    2.0037374 
   76900    4044584.2    100.24194   -149.12312    273.59098    122.60511    120.57673    149.12312    2.0041204 
   76920    4046214.2     100.2896   -287.86747    273.62586    122.62756    120.58787    287.86747    2.0045033 
   76940    4046038.3    100.02104   -170.21197    273.66073    122.62312    120.57163    170.21197    2.0048863 
   76960    4046172.7    100.13713   -249.53448     273.6956    122.63633    120.54729    249.53448    2.0052692 
   76980    4046522.5     100.0327   -170.91366    273.73048    122.63975    120.53899    170.91366    2.0056521 
   77000    4048791.7    99.915368   -262.18928    273.76535    122.67904     120.5526    262.18928    2.0060351 
   77020    4048568.8    100.05115   -206.18366    273.80023    122.68457    120.52517    206.18366     2.006418 
   77040    4048009.5    99.968996   -288.22723     273.8351    122.68401    120.49372    288.22723    2.0068009 
   77060    4048950.1    99.875143    -249.3543    273.86998    122.70114    120.48956     249.3543    2.0071839 
   77080    4049769.7    100.08936   -315.25516    273.90485    122.71534    120.48466    315.25516    2.0075668 
   77100    4049384.9    99.858718   -255.97331    273.93973    122.70558    120.46746    255.97331    2.0079497 
   77120    4051082.5    99.761279   -249.51289     273.9746     122.7302    120.47844    249.51289    2.0083327 
   77140    4052538.3    100.17642   -210.23668    274.00948    122.75928    120.47785    210.23668    2.0087156 
   77160    4052928.2    100.03433   -205.83351    274.04435    122.77792    120.45582    205.83351    2.0090985 
   77180    4053808.3    100.02773   -203.28155    274.07922    122.77412    120.47038    203.28155    2.0094815 
   77200    4054710.8    100.07761   -147.11317     274.1141    122.77766    120.47839    147.11317    2.0098644 
   77220    4055429.8     99.76589   -201.34632    274.14897     122.7698    120.49214    201.34632    2.0102473 
   77240    4055949.7    99.762644   -212.91289    274.18385    122.76193    120.49999    212.91289    2.0106303 
   77260    4057300.1    99.782942   -209.56112    274.21872    122.78481    120.50232    209.56112    2.0110132 
   77280    4058079.1    100.05447   -165.00169     274.2536    122.79206    120.50301    165.00169    2.0113961 
   77300    4058520.6    100.28594    -256.5384    274.28847    122.78526    120.50747     256.5384    2.0117791 
   77320    4059492.2    99.915099   -196.70016    274.32335    122.77053    120.53546    196.70016     2.012162 
   77340    4061118.2    100.05597   -202.27895    274.35822    122.78269    120.55646    202.27895    2.0125449 
   77360    4060366.4    100.07596   -156.66714     274.3931    122.76646    120.53476    156.66714    2.0129279 
   77380      4060582    100.09215    -221.2434    274.42797      122.766    120.52629     221.2434    2.0133108 
   77400    4061669.2    100.15231   -205.56313    274.46285    122.78301    120.52655    205.56313    2.0136937 
   77420    4062071.9    100.24522   -264.87114    274.49772    122.77966    120.52647    264.87114    2.0140767 
   77440    4061438.1    100.57002   -222.02816    274.53259    122.75865    120.51298    222.02816    2.0144596 
   77460    4062949.3    100.10916   -226.05634    274.56747    122.75955    120.54162    226.05634    2.0148425 
   77480    4063312.7    100.10813   -181.47375    274.60234    122.73778    120.55847    181.47375    2.0152255 
   77500    4064124.1    100.03699    -231.0803    274.63722    122.74081    120.56426     231.0803    2.0156084 
   77520    4063705.3     100.0026   -204.94538    274.67209    122.72802    120.54909    204.94538    2.0159913 
   77540    4064590.8    100.12018   -244.70438    274.70697    122.73299    120.55517    244.70438    2.0163743 
   77560    4064062.2    100.13226   -210.27073    274.74184    122.71245    120.54437    210.27073    2.0167572 
   77580    4064111.7    100.21999   -258.03689    274.77672    122.70117    120.54161    258.03689    2.0171402 
   77600    4064570.5    100.20713   -242.57169    274.81159    122.68358     120.5572    242.57169    2.0175231 
   77620    4065788.4    99.760601   -241.53684    274.84647    122.68349    120.57812    241.53684     2.017906 
   77640    4065492.7    99.913037   -223.65508    274.88134     122.6725    120.56485    223.65508     2.018289 
   77660    4066753.3    99.713079   -248.65129    274.91621     122.6798    120.57976    248.65129    2.0186719 
   77680    4067722.3    99.931999   -243.51547    274.95109    122.67085    120.60199    243.51547    2.0190548 
   77700    4066939.1    99.800803   -217.72914    274.98596    122.65692    120.57717    217.72914    2.0194378 
   77720    4066935.7    99.933354   -255.42416    275.02084    122.66272    120.55608    255.42416    2.0198207 
   77740    4068433.9    99.934595   -185.28168    275.05571     122.6549    120.59288    185.28168    2.0202036 
   77760    4069523.6    99.772705   -272.32296    275.09059    122.65029    120.61442    272.32296    2.0205866 
   77780    4068961.5    100.08444   -183.27048    275.12546    122.64549    120.58721    183.27048    2.0209695 
   77800    4070115.1    100.03008   -212.70628    275.16034    122.65879    120.59302    212.70628    2.0213524 
   77820    4070946.4    100.17863   -166.09358    275.19521    122.63794    120.62287    166.09358    2.0217354 
   77840    4070238.4    100.19589   -175.33357    275.23009    122.62618    120.59818    175.33357    2.0221183 
   77860    4069474.9    99.780463   -142.58648    275.26496    122.61544    120.57084    142.58648    2.0225012 
   77880    4071830.1    100.01298   -171.71223    275.29983    122.66031    120.58121    171.71223    2.0228842 
   77900    4071295.3    100.20316   -154.05049    275.33471    122.66832    120.54223    154.05049    2.0232671 
   77920      4072120    99.826078   -210.06431    275.36958    122.68113     120.5388    210.06431      2.02365 
   77940    4072030.1    99.894094   -196.84953    275.40446    122.64893    120.55251    196.84953     2.024033 
   77960    4072082.2    99.703569   -177.92016    275.43933     122.6523    120.53548    177.92016    2.0244159 
   77980    4072188.5    99.953295   -154.83434    275.47421    122.65151    120.52414    154.83434    2.0247988 
   78000    4072635.8    100.11007   -216.09861    275.50908    122.64843    120.52514    216.09861    2.0251818 
   78020    4073993.1    99.898918   -156.74115    275.54396    122.65678    120.54185    156.74115    2.0255647 
   78040    4073186.9    99.953786   -235.90248    275.57883    122.63753    120.52165    235.90248    2.0259476 
   78060      4072823    99.985304   -224.34074    275.61371    122.63325    120.49985    224.34074    2.0263306 
   78080    4074015.6    99.718777   -224.12653    275.64858     122.6473    120.50607    224.12653    2.0267135 
   78100    4074150.5    99.631726     -246.429    275.68346    122.64114    120.50087      246.429    2.0270964 
   78120      4073683    99.920955   -227.55196    275.71833    122.60509    120.50722    227.55196    2.0274794 
   78140    4074249.1    100.03132   -224.12932     275.7532    122.61597    120.49804    224.12932    2.0278623 
   78160    4076194.9    99.822094   -243.60871    275.78808    122.64504    120.51177    243.60871    2.0282452 
   78180    4075586.9    99.823177   -228.76394    275.82295    122.62355    120.49967    228.76394    2.0286282 
   78200    4075121.3    99.926341   -264.02668    275.85783    122.60155    120.49229    264.02668    2.0290111 
   78220    4077176.9    100.02722   -238.27321     275.8927    122.62048    120.51922    238.27321    2.0293941 
   78240      4077217    99.844051   -294.55112    275.92758    122.60227    120.52307    294.55112     2.029777 
   78260    4077018.3     99.88804   -234.49842    275.96245    122.58358    120.52034    234.49842    2.0301599 
   78280      4078565    99.930845   -285.04343    275.99733    122.58285    120.55155    285.04343    2.0305429 
   78300    4078223.7    99.970781   -187.69088     276.0322     122.5582    120.55048    187.69088    2.0309258 
   78320    4078081.4    100.21145   -215.54915    276.06708    122.53428    120.55457    215.54915    2.0313087 
   78340    4078315.3    100.23593   -232.79569    276.10195     122.5277    120.55273    232.79569    2.0316917 
   78360    4080253.9    100.22275   -178.55559    276.13682    122.53349     120.5891    178.55559    2.0320746 
   78380    4079969.8    100.28109   -203.26407     276.1717     122.5173    120.58141    203.26407    2.0324575 
   78400      4079840    100.14214   -234.19354    276.20657    122.51339     120.5662    234.19354    2.0328405 
   78420      4081242    100.26537   -166.58597    276.24145    122.52518     120.5808    166.58597    2.0332234 
   78440    4083353.1    100.43966   -206.28117    276.27632    122.55497    120.59862    206.28117    2.0336063 
   78460    4082102.3    100.55486   -170.54644     276.3112    122.54944     120.5519    170.54644    2.0339893 
   78480    4083049.2    100.04958    -217.9475    276.34607    122.55613    120.55807     217.9475    2.0343722 
   78500      4084422    100.31637   -150.00001    276.38095    122.57362    120.56618    150.00001    2.0347551 
   78520    4085360.5    100.24128   -246.18278    276.41582    122.59194    120.56064    246.18278    2.0351381 
   78540    4085251.6    100.06968   -190.55803     276.4507    122.57459    120.55929    190.55803     2.035521 
   78560    4086454.8    100.02539   -211.62778    276.48557     122.5697    120.58439    211.62778    2.0359039 
   78580      4087315    100.03919    -198.5909    276.52044    122.59212    120.57251     198.5909    2.0362869 
   78600    4086934.3    99.945041   -200.13475    276.55532    122.58232    120.55572    200.13475    2.0366698 
   78620    4087612.3    99.926401   -202.07228    276.59019    122.55689    120.58553    202.07228    2.0370527 
   78640    4088293.9    100.09171   -204.44959    276.62507    122.55429    120.59299    204.44959    2.0374357 
   78660    4088101.4    100.25372   -199.96074    276.65994    122.54968    120.57665    199.96074    2.0378186 
   78680    4088956.3    99.994471   -255.90618    276.69482     122.5391    120.59708    255.90618    2.0382015 
   78700    4089730.2    100.01035   -190.13198    276.72969      122.536    120.60775    190.13198    2.0385845 
   78720    4089954.9    99.944101   -264.77632    276.76457    122.54907    120.58631    264.77632    2.0389674 
   78740    4089571.8     99.95313   -190.35242    276.79944    122.54319    120.56561    190.35242    2.0393503 
   78760    4089613.9    100.12371    -251.3929    276.83432    122.54352    120.55134     251.3929    2.0397333 
   78780      4090475    100.02949   -158.66375    276.86919    122.55977    120.54554    158.66375    2.0401162 
   78800    4090985.7    100.13516   -290.49934    276.90406     122.5629    120.54234    290.49934    2.0404991 
   78820    4091551.6    100.26208   -265.94647    276.93894    122.53793    120.56839    265.94647    2.0408821 
   78840    4092380.4    99.922866   -266.58708    276.97381    122.52098    120.59431    266.58708     2.041265 
   78860    4091276.7    100.12499   -229.62425    277.00869    122.50983    120.55758    229.62425     2.041648 
   78880    4092243.1    100.08197   -225.66986    277.04356    122.51954    120.56132    225.66986    2.0420309 
   78900    4093529.5    100.00652   -241.11283    277.07844    122.54473    120.55925    241.11283    2.0424138 
   78920      4094583     99.88905   -227.02424    277.11331    122.57326    120.54704    227.02424    2.0427968 
   78940    4093946.6    99.802113   -207.50235    277.14819    122.56722    120.51908    207.50235    2.0431797 
   78960    4095010.4    99.824159   -202.10952    277.18306    122.57486    120.52772    202.10952    2.0435626 
   78980    4096386.3    99.643133   -197.01771    277.21794    122.60211    120.52625    197.01771    2.0439456 
   79000    4095872.2     99.80743   -166.95909    277.25281    122.58536    120.51243    166.95909    2.0443285 
   79020    4096136.7    99.837468   -173.71521    277.28769    122.59653    120.49407    173.71521    2.0447114 
   79040    4096920.4    100.04455   -153.29817    277.32256    122.59123    120.50718    153.29817    2.0450944 
   79060    4097869.4    99.811471   -163.37513    277.35743    122.59962    120.51169    163.37513    2.0454773 
   79080    4098468.4    100.01993   -189.01032    277.39231    122.59912    120.51464    189.01032    2.0458602 
   79100    4098543.5    99.617335   -170.66504    277.42718    122.59232    120.50839    170.66504    2.0462432 
   79120    4099996.8    99.865256   -170.58849    277.46206    122.60069    120.52773    170.58849    2.0466261 
   79140    4100412.7     99.64159   -178.11117    277.49693    122.58858    120.53672    178.11117     2.047009 
   79160    4101612.9    99.917108    -220.7614    277.53181    122.59922    120.54639     220.7614     2.047392 
   79180    4103583.4    99.960577   -215.43369    277.56668    122.61007    120.57848    215.43369    2.0477749 
   79200    4103634.9    100.13818   -244.21093    277.60156    122.61267    120.56228    244.21093    2.0481578 
   79220    4103942.2    100.09765   -166.80611    277.63643    122.61711     120.5518    166.80611    2.0485408 
   79240    4104408.3    100.20223   -206.57087    277.67131    122.60296    120.56426    206.57087    2.0489237 
   79260    4104927.8    100.16382    -173.1958    277.70618    122.59619    120.57104     173.1958    2.0493066 
   79280    4105076.7     100.2217    -236.3731    277.74105    122.60065    120.55589     236.3731    2.0496896 
   79300    4106215.5     100.3854   -221.84712    277.77593    122.59431    120.58043    221.84712    2.0500725 
   79320    4107033.5    100.28709   -207.59553     277.8108    122.58139    120.60202    207.59553    2.0504554 
   79340    4106846.1    100.43087   -272.51984    277.84568    122.57084    120.59176    272.51984    2.0508384 
   79360    4107363.4    99.961916   -250.71292    277.88055    122.56457    120.59797    250.71292    2.0512213 
   79380    4108932.2    100.06687   -255.10194    277.91543    122.58238    120.61138    255.10194    2.0516042 
   79400    4108225.8    100.21437   -172.17244     277.9503    122.57845    120.57937    172.17244    2.0519872 
   79420    4108974.2    100.21726   -260.30379    277.98518    122.58871    120.57612    260.30379    2.0523701 
   79440      4110246    100.28803   -237.54343    278.02005    122.61118    120.57621    237.54343    2.0527531 
   79460    4111741.7    100.22018   -318.11482    278.05493    122.63632    120.58024    318.11482     2.053136 
   79480    4111128.2    100.36265   -234.61331     278.0898    122.62854    120.55477    234.61331    2.0535189 
   79500    4111418.2    100.01794   -259.54893    278.12467    122.61184    120.56458    259.54893    2.0539019 
   79520    4112411.3    100.00805   -125.54434    278.15955    122.62728     120.5634    125.54434    2.0542848 
   79540    4113604.7    100.09444   -285.38828    278.19442    122.64706    120.56382    285.38828    2.0546677 
   79560    4112968.9    100.17364   -154.77165     278.2293    122.62169    120.55501    154.77165    2.0550507 
   79580    4114215.2    100.05147   -249.94013    278.26417    122.62336    120.57478    249.94013    2.0554336 
   79600    4113659.4    100.09611   -120.01572    278.29905    122.61092    120.55562    120.01572    2.0558165 
   79620    4114005.2    99.960381   -251.11701    278.33392    122.59499    120.56631    251.11701    2.0561995 
   79640    4114156.9    100.13052   -126.90318     278.3688    122.59504     120.5556    126.90318    2.0565824 
   79660    4115466.1    99.981234    -226.3603    278.40367    122.62277    120.55159     226.3603    2.0569653 
   79680    4115033.6    100.13533   -93.444419    278.43855    122.60016    120.54606    93.444419    2.0573483 
   79700    4116343.1    99.943796   -237.14575    278.47342    122.61377    120.55593    237.14575    2.0577312 
   79720    4116786.1    100.00179    -127.9763     278.5083     122.6242    120.54355     127.9763    2.0581141 
   79740    4117283.1    99.920765   -149.96995    278.54317    122.63064    120.53667    149.96995    2.0584971 
   79760    4116692.1    100.06636    -163.0721    278.57804     122.6159    120.51877     163.0721      2.05888 
   79780    4119461.3    100.07389    -233.0622    278.61292    122.64862    120.55258     233.0622    2.0592629 
   79800    4120050.1    99.981293   -211.63582    278.64779    122.63994    120.56326    211.63582    2.0596459 
   79820    4119740.2    99.846818   -254.74346    278.68267    122.62921    120.54964    254.74346    2.0600288 
   79840    4118071.7    99.877915   -173.68955    278.71754    122.58178    120.53236    173.68955    2.0604117 
   79860    4119522.8    100.06524   -207.01897    278.75242    122.60999    120.53202    207.01897    2.0607947 
   79880      4119796    100.06397   -192.34146    278.78729    122.60828    120.52661    192.34146    2.0611776 
   79900    4119180.1     99.71579   -201.98714    278.82217    122.59593    120.50566    201.98714    2.0615605 
   79920      4119810    99.884937   -197.33454    278.85704    122.59337    120.51153    197.33454    2.0619435 
   79940    4122078.7     100.0417   -206.85428    278.89192    122.60844    120.54799    206.85428    2.0623264 
   79960    4121837.3    99.926916   -236.08837    278.92679    122.58428    120.54962    236.08837    2.0627093 
   79980    4122522.4    99.890008   -296.82803    278.96166    122.57625    120.56248    296.82803    2.0630923 
   80000    4122426.4     99.61429   -243.52692    278.99654    122.58085    120.54008    243.52692    2.0634752 
Loop time of 12061.7 on 64 procs for 80000 steps with 212040 atoms

Performance: 0.573 ns/day, 41.881 hours/ns, 6.633 timesteps/s
99.8% CPU use with 64 MPI tasks x 1 OpenMP threads

MPI task timing breakdown:
Section |  min time  |  avg time  |  max time  |%varavg| %total
---------------------------------------------------------------
Pair    | 2236.7     | 3568.7     | 4650.1     | 912.5 | 29.59
Bond    | 225.24     | 315.92     | 378.25     | 197.4 |  2.62
Kspace  | 542.51     | 1687.6     | 3111.3     |1410.6 | 13.99
Neigh   | 6190.1     | 6201       | 6213.1     |   9.2 | 51.41
Comm    | 194.36     | 209.7      | 225.74     |  58.6 |  1.74
Output  | 2.9549     | 3.1179     | 3.2636     |   4.4 |  0.03
Modify  | 59.8       | 67.266     | 74.115     |  33.2 |  0.56
Other   |            | 8.467      |            |       |  0.07

Nlocal:        3313.12 ave        4930 max         784 min
Histogram: 3 5 4 2 3 7 12 9 12 7
Nghost:        16966.8 ave       22622 max        9442 min
Histogram: 7 5 2 5 6 5 5 12 9 8
Neighs:    1.80034e+06 ave 3.22559e+06 max      285217 min
Histogram: 8 5 1 5 6 17 5 6 8 3

Total # of neighbors = 1.152218e+08
Ave neighs/atom = 543.39651
Ave special neighs/atom = 5.9990568
Neighbor list builds = 80000
Dangerous builds not checked
Total wall time: 3:21:06
