LAMMPS (29 Oct 2020)
OMP_NUM_THREADS environment is not set. Defaulting to 1 thread. (../comm.cpp:94)
  using 1 OpenMP thread(s) per MPI task
####################################################
#    This program is free software: you can redistribute it and/or modify
#    it under the terms of the GNU General Public License as published by
#    the Free Software Foundation, either version 3 of the License, or
#    (at your option) any later version.
#
#    This program is distributed in the hope that it will be useful,
#    but WITHOUT ANY WARRANTY; without even the implied warranty of
#    MERCHANTABILITY or FITNESS FOR A PARTICULAR PURPOSE.  See the
#    GNU General Public License for more details.


units		real        ## defines the units style used herein. More information: https://docs.lammps.org/units.html
atom_style	full        ## defines the atom style used herein. More information: https://docs.lammps.org/atom_style.html

# Styles
pair_style      lj/cut/coul/long 15.0 10.0      ## sets the formula(s) LAMMPS uses to compute pairwise interactions; here, lennard-jones (LJ) with long-range Coulomb interaction. More: https://docs.lammps.org/pair_lj_cut_coul.html
pair_modify     shift no                        ## the shift keyword determines whether a Lennard-Jones potential is shifted at its cutoff to 0.0. More: https://docs.lammps.org/pair_modify.html
kspace_style    pppm 1.0e-4                     ## defines a long-range solver for LAMMPS to compute long-range Coulombic interactions. Note: requires use of a matching pair style, i.e. PPPM with coul/long. More: https://docs.lammps.org/kspace_style.html
bond_style      harmonic                        ## defined based off the forcefield used to construct the system; models the atoms' interactions
angle_style     harmonic
dihedral_style  opls
improper_style  cvff
special_bonds   lj 0 0 1 coul 0 0 1

read_data       100K_TRP.lmps      ## input lammps datafile, equilibriated until structure nears experimental properties
Reading data file ...
  orthogonal box = (230.25087 230.25087 230.25087) to (369.74913 369.74913 369.74913)
  4 by 4 by 4 MPI processor grid
  reading atoms ...
  212040 atoms
  reading velocities ...
  212040 velocities
  scanning bonds ...
  2 = max bonds/atom
  scanning angles ...
  6 = max angles/atom
  scanning dihedrals ...
  15 = max dihedrals/atom
  scanning impropers ...
  2 = max impropers/atom
  reading bonds ...
  236020 bonds
  reading angles ...
  399920 angles
  reading dihedrals ...
  615800 dihedrals
  reading impropers ...
  127960 impropers
Finding 1-2 1-3 1-4 neighbors ...
  special bond factors lj:    0.0      0.0      1.0     
  special bond factors coul:  0.0      0.0      1.0     
     4 = max # of 1-2 neighbors
    10 = max # of 1-3 neighbors
    14 = max # of special neighbors
  special bonds CPU = 1.640 seconds
  read_data CPU = 3.876 seconds

dielectric      1.0
neighbor    	1.0 bin
neigh_modify	delay 0 every 1 check no        ## this is to make sure that the neighbor list is updated every timestep, and the atoms don't get lost as the system is being deformed ##

timestep	    1.0                             ## unit = fs, per "real" unit style
run_style       verlet                          ## defines algorithm used for simulation computation; verlet integration is a numerical method used to integrate Newton's equations of motion.

variable stress equal press*-1                         ## computes stress as the negative of press values
variable engStrain equal (lx-91.07191)/91.07191      ## computes engineering strain; lx_0 must be found and inputted manually (for now)

thermo		    20                                                               ## output log data (headers in thermo_style), recorded at every timestep in numList.txt
thermo_style    custom step vol temp press lx ly lz v_stress v_engStrain         ## data headers of output log file. More: https://docs.lammps.org/thermo_style.html

################# Deformation ##################

fix 1 all npt temp 100 100 100 y 1 1 100.0 z 1 1 100.0      ## stress normal to the x direction can vary; external pressure (y and z) = 1atm ##

fix 2 all deform 1 x scale 2.0 remap x                      ## sets a uniaxial (x-direction) deformation in motion, scaling a set amount (here, 4.0x) the initial length


################# Dumping ##################

reset_timestep 0

dump dump2 all custom 20000 sim.lammpstrj id mol type q xs ys zs ix iy iz

restart 40000 PMP.restart

run 		400000              ## this depends on the overall strain rate, where strain rate = deformScale / runTimeSteps (consider units!)
PPPM initialization ...
WARNING: System is not charge neutral, net charge = 0.034008 (../kspace.cpp:313)
  using 12-bit tables for long-range coulomb (../kspace.cpp:328)
  G vector (1/distance) = 0.20011664
  grid = 36 36 36
  stencil order = 5
  estimated absolute RMS force accuracy = 0.040574601
  estimated relative force accuracy = 0.00012218921
  using double precision FFTW3
  3d grid and FFT values/proc = 2744 900
Neighbor list info ...
  update every 1 steps, delay 0 steps, check no
  max neighbors/atom: 2000, page size: 100000
  master list distance cutoff = 16
  ghost atom cutoff = 16
  binsize = 8, bins = 18 18 18
  1 neighbor lists, perpetual/occasional/extra = 1 0 0
  (1) pair lj/cut/coul/long, perpetual
      attributes: half, newton on
      pair build: half/bin/newton
      stencil: half/bin/3d/newton
      bin: standard
Per MPI rank memory allocation (min/avg/max) = 38.92 | 39.74 | 40.14 Mbytes
Step Volume Temp Press Lx Ly Lz v_stress v_engStrain 
       0    2714603.8    100.15978    14829.197    139.49827    139.49827    139.49827   -14829.197   0.53173761 
      20      2742864    103.71327    644.35278    139.50524    140.22465    140.21336   -644.35278   0.53181419 
      40    2759408.2    103.56133     1245.198    139.51222    140.64221    140.63325    -1245.198   0.53189078 
      60      2752307    103.90094   -103.57499    139.51919    140.45842    140.44786    103.57499   0.53196737 
      80    2745242.3     103.7451    89.539866    139.52617    140.27751    140.26102   -89.539866   0.53204395 
     100    2748465.9    103.76989    65.899962    139.53314    140.36867     140.3275   -65.899962   0.53212054 
     120      2745259    102.67919   -418.10972    139.54012     140.2891    140.23625    418.10972   0.53219713 
     140    2737549.7    102.89538   -443.48264    139.54709    140.09636    140.02783    443.48264   0.53227372 
     160    2735084.4    102.44302   -379.53221    139.55407    140.03796    139.95307    379.53221    0.5323503 
     180    2737765.4     102.5968   -327.69401    139.56104    140.11444     140.0068    327.69401   0.53242689 
     200    2731386.3    102.50766   -184.29367    139.56802    139.95032     139.8374    184.29367   0.53250348 
     220    2732079.1    102.32176   -76.180367    139.57499    139.96632    139.84989    76.180367   0.53258006 
     240    2732181.4    102.08762    609.39102    139.58197    139.97715    139.83731   -609.39102   0.53265665 
     260    2726986.4    102.03167    249.84152    139.58894    139.85025    139.69108   -249.84152   0.53273324 
     280    2728950.3    101.86549    216.38452    139.59592    139.90256    139.73244   -216.38452   0.53280982 
     300    2730332.7    101.59076   -569.63699    139.60289    139.93976    139.75908    569.63699   0.53288641 
     320    2728289.8    101.71117     346.0529    139.60987    139.89667    139.69054    -346.0529     0.532963 
     340    2726341.9    100.97756   -416.57191    139.61684    139.86223    139.61821    416.57191   0.53303958 
     360    2728238.4    100.89064    138.22912    139.62382    139.92527    139.64541   -138.22912   0.53311617 
     380    2732639.8     101.0331    170.34831    139.63079    140.05821    139.73095   -170.34831   0.53319276 
     400    2729478.6    100.36758   -305.55257    139.63777    139.96211    139.65816    305.55257   0.53326934 
     420    2730805.4    100.49615      51.3126    139.64474     139.9877    139.69352     -51.3126   0.53334593 
     440    2733026.7    100.60355    281.67311    139.65172    140.05325    139.73475   -281.67311   0.53342252 
     460    2732445.9     100.3974   -118.43558    139.65869    140.04502    139.70628    118.43558   0.53349911 
     480    2729529.7    100.07445     79.79645    139.66567    139.96766    139.62733    -79.79645   0.53357569 
     500    2733242.2    100.20176    90.472069    139.67264    140.07504    139.70309   -90.472069   0.53365228 
     520    2733610.1    100.04247    21.824685    139.67962    140.07522    139.71473   -21.824685   0.53372887 
     540    2734057.2     100.0447   -285.42332    139.68659    140.08321    139.72264    285.42332   0.53380545 
     560    2735234.1    99.560881   -2.2672749    139.69357    140.12113    139.73798    2.2672749   0.53388204 
     580    2734695.1    99.751217   -24.844239    139.70054    140.09992    139.72462    24.844239   0.53395863 
     600    2735356.1    99.633654    148.13707    139.70752    140.09964    139.75169   -148.13707   0.53403521 
     620    2735654.4     99.45957   -286.58374    139.71449    140.08725    139.77232    286.58374    0.5341118 
     640    2736800.2    99.397982    109.88838    139.72147    140.11083    139.80034   -109.88838   0.53418839 
     660    2736038.3    99.548481   -102.12198    139.72844    140.06823    139.79695    102.12198   0.53426497 
     680    2733628.4    99.653043    143.46146    139.73542     139.9875    139.74739   -143.46146   0.53434156 
     700    2734221.9    99.590894     62.72559    139.74239    139.99688    139.76139    -62.72559   0.53441815 
     720    2736043.7    99.624656    325.29695    139.74937    140.03945    139.80502   -325.29695   0.53449473 
     740    2733966.6    99.762734   -126.83383    139.75634    139.97539    139.75585    126.83383   0.53457132 
     760    2734664.2    99.681633    231.29555    139.76332    140.00105    139.75891   -231.29555   0.53464791 
     780    2738400.7    99.637814   -126.95535    139.77029    140.08413     139.8599    126.95535    0.5347245 
     800    2736042.2    99.734313    230.36466    139.77727     140.0124    139.80405   -230.36466   0.53480108 
     820    2734690.9    99.906362   -136.15484    139.78424    139.97457    139.76579    136.15484   0.53487767 
     840    2737909.9    100.24683   -16.691253    139.79122    140.05314    139.84483    16.691253   0.53495426 
     860    2736925.3    99.990395    39.168531    139.79819     140.0071    139.83353   -39.168531   0.53503084 
     880    2734867.5      99.7671    31.751576    139.80517    139.94998    139.77846   -31.751576   0.53510743 
     900    2737625.5    100.29272   -126.09214    139.81214    139.99967    139.86277    126.09214   0.53518402 
     920    2740089.4    100.22299    80.776171    139.81912    140.05792    139.92346   -80.776171    0.5352606 
     940    2736330.8    100.18457   -110.04658    139.82609     139.9732    139.80911    110.04658   0.53533719 
     960    2737312.7    100.11115   -39.983204    139.83307     140.0067    139.81884    39.983204   0.53541378 
     980    2739911.6    100.39647   -155.88082    139.84004    140.05087    139.90048    155.88082   0.53549036 
    1000    2737060.8    100.26773    47.044093    139.84702    139.97732    139.82137   -47.044093   0.53556695 
    1020    2737657.6    100.03758   -165.95346    139.85399    140.00134    139.82089    165.95346   0.53564354 
    1040    2737740.7    100.21637   -44.405776    139.86096    139.99913    139.82037    44.405776   0.53572012 
    1060    2739798.8    100.44212   -169.21482    139.86794    140.05292    139.86477    169.21482   0.53579671 
    1080    2737099.9    100.09074   -124.02387    139.87491    139.97815    139.79466    124.02387    0.5358733 
    1100    2738062.3    99.936966   -69.339005    139.88189    140.00541    139.80961    69.339005   0.53594989 
    1120    2738615.1    100.06844    327.36256    139.88886    140.03597    139.80035   -327.36256   0.53602647 
    1140      2738496    100.26551   -118.23206    139.89584    140.01936    139.80388    118.23206   0.53610306 
    1160    2738062.4    100.12889    236.45633    139.90281    140.00463    139.78949   -236.45633   0.53617965 
    1180    2738182.5    99.887752   -5.3227645    139.90979     140.0012    139.79207    5.3227645   0.53625623 
    1200    2739600.7    99.834162    52.225807    139.91676    140.04574    139.81302   -52.225807   0.53633282 
    1220    2736909.2    99.805063   -50.826031    139.92374    139.97215    139.74213    50.826031   0.53640941 
    1240    2740159.3    99.861517    73.096095    139.93071    140.04534    139.82798   -73.096095   0.53648599 
    1260    2739590.4    99.795301   -231.10696    139.93769    140.03679    139.80053    231.10696   0.53656258 
    1280    2739095.2    99.839288    125.78772    139.94466    140.01199    139.79304   -125.78772   0.53663917 
    1300    2738018.6    99.808004   -89.226792    139.95164    139.99003    139.75305    89.226792   0.53671575 
    1320    2739783.6    99.681434    104.44752    139.95861     140.0379    139.78837   -104.44752   0.53679234 
    1340    2738694.9    99.900943   -25.200149    139.96559    140.01653    139.74719    25.200149   0.53686893 
    1360    2737039.3    99.596993    146.43938    139.97256    139.97318    139.69899   -146.43938   0.53694551 
    1380    2740123.6     99.87383   -6.7931255    139.97954    140.05982    139.76294    6.7931255    0.5370221 
    1400    2738519.9    100.07903    177.25836    139.98651    140.00608     139.7278   -177.25836   0.53709869 
    1420    2738707.7    99.855236    -89.51426    139.99349      140.013    139.72351     89.51426   0.53717528 
    1440    2738192.3    99.736703    65.301982    140.00046    139.99388    139.70933   -65.301982   0.53725186 
    1460    2739113.2    100.17907   -54.714992    140.00744    140.00768    139.73558    54.714992   0.53732845 
    1480      2738372    99.991231   -12.531684    140.01441    139.99595    139.70252    12.531684   0.53740504 
    1500    2738059.6    99.873074   -166.27713    140.02139     139.9914    139.68416    166.27713   0.53748162 
    1520      2738329    100.04539   -13.408992    140.02836    139.98959    139.69275    13.408992   0.53755821 
    1540    2738976.6    100.09228   -222.84364    140.03534     140.0065    139.70195    222.84364    0.5376348 
    1560    2738037.3    100.13214   -24.142118    140.04231    139.96979    139.68371    24.142118   0.53771138 
    1580    2738847.3    100.33373   -111.94989    140.04929    139.98557    139.70233    111.94989   0.53778797 
    1600    2738324.3      100.102    114.36729    140.05626    139.97979    139.67446   -114.36729   0.53786456 
    1620    2738490.7    100.16064   -64.019874    140.06324    139.97098    139.68479    64.019874   0.53794114 
    1640    2738483.5     100.0934   -48.026424    140.07021    139.96473     139.6837    48.026424   0.53801773 
    1660    2738437.8    100.03008    65.318039    140.07719     139.9604    139.67873   -65.318039   0.53809432 
    1680    2738457.4    99.875637    49.092658    140.08416    139.95451    139.67866   -49.092658    0.5381709 
    1700    2737899.8    100.17887   -161.93304    140.09114    139.92139    139.67632    161.93304   0.53824749 
    1720      2739790     100.3727    54.278765    140.09811    139.95829    139.72894   -54.278765   0.53832408 
    1740    2739419.4    100.34072   -145.99852    140.10509     139.9394    139.72194    145.99852   0.53840067 
    1760    2739057.1    100.30307    80.263595    140.11206    139.91229    139.72357   -80.263595   0.53847725 
    1780      2738681    100.04548   -84.372195    140.11904    139.87301    139.73667    84.372195   0.53855384 
    1800    2740848.5    99.966684    107.61409    140.12601    139.91101    139.80232   -107.61409   0.53863043 
    1820    2739503.7     99.95521   -50.126454    140.13299    139.86299    139.77475    50.126454   0.53870701 
    1840    2739644.6    99.757056    137.67486    140.13996    139.86976    139.76821   -137.67486    0.5387836 
    1860    2740215.4    99.880087   -37.151129    140.14694    139.88092    139.77922    37.151129   0.53886019 
    1880    2740957.5    99.943987    106.33096    140.15391    139.89748    139.79357   -106.33096   0.53893677 
    1900      2739689    99.691763   -67.681997    140.16089    139.84107    139.77828    67.681997   0.53901336 
    1920    2740464.2    99.798577    95.609354    140.16786    139.85494      139.797   -95.609354   0.53908995 
    1940    2742131.4    99.823468   -67.199995    140.17484    139.88964     139.8404    67.199995   0.53916653 
    1960    2739693.7    99.771352   -39.955597    140.18181     139.8475    139.75123    39.955597   0.53924312 
    1980    2741644.5    99.621106   -186.89182    140.18879     139.9097    139.78161    186.89182   0.53931971 
    2000    2740877.7    99.798674   -18.066823    140.19576    139.90525    139.74001    18.066823    0.5393963 
    2020      2740587    99.743412    15.358375    140.20274    139.89872    139.72475   -15.358375   0.53947288 
    2040    2739671.6    99.987713    45.880862    140.20971    139.87871    139.69112   -45.880862   0.53954947 
    2060    2741026.6    100.04431   -10.043167    140.21669    139.89278     139.7392    10.043167   0.53962606 
    2080    2740267.8    99.987484    110.69149    140.22366    139.87117    139.71515   -110.69149   0.53970264 
    2100    2739309.9    100.07881   -62.327116    140.23064    139.86082     139.6697    62.327116   0.53977923 
    2120    2740841.1    99.992301   -51.952651    140.23761    139.89591    139.70577    51.952651   0.53985582 
    2140    2740780.3    99.953688   -167.54493    140.24459    139.90515    139.68649    167.54493    0.5399324 
    2160    2740543.7     100.1162   -92.760005    140.25156     139.8863    139.68631    92.760005   0.54000899 
    2180    2740417.5    99.990413   -168.41655    140.25854    139.86026    139.69894    168.41655   0.54008558 
    2200    2741698.6    100.02947   -29.894997    140.26551    139.87531    139.74226    29.894997   0.54016216 
    2220    2741129.9    100.31294   -66.476847    140.27248     139.8597    139.72192    66.476847   0.54023875 
    2240    2740742.8    100.35168   -61.953623    140.27946    139.86096    139.69398    61.953623   0.54031534 
    2260    2741164.1    100.28067    41.996654    140.28643    139.88461    139.68489   -41.996654   0.54039192 
    2280    2742138.7    100.19012    77.398295    140.29341    139.90756    139.70468   -77.398295   0.54046851 
    2300    2741518.7    100.45073   -117.46544    140.30038    139.88171    139.69197    117.46544    0.5405451 
    2320    2741495.8    100.15226    21.858746    140.30736    139.88192    139.68364   -21.858746   0.54062169 
    2340    2742544.9    100.11964   -126.76043    140.31433    139.90778    139.70433    126.76043   0.54069827 
    2360    2741927.1    100.12297   -32.795455    140.32131    139.89649    139.67718    32.795455   0.54077486 
    2380    2740656.2    100.14423   -27.281919    140.32828    139.87587    139.62608    27.281919   0.54085145 
    2400    2742954.9    100.29241    53.831493    140.33526    139.94131     139.6709   -53.831493   0.54092803 
    2420      2741985    100.09859   -66.575319    140.34223     139.9296    139.62626    66.575319   0.54100462 
    2440    2741050.4    99.945621    77.940382    140.34921    139.89678    139.60448   -77.940382   0.54108121 
    2460    2741716.9    100.06331   -97.459925    140.35618    139.89456    139.63369    97.459925   0.54115779 
    2480    2741874.1    99.888342    83.496266    140.36316    139.88577    139.64354   -83.496266   0.54123438 
    2500    2740550.4     99.92087   -31.692508    140.37013    139.84996    139.60492    31.692508   0.54131097 
    2520    2741082.2    99.954748    64.272923    140.37711    139.85122    139.62381   -64.272923   0.54138755 
    2540    2742048.1    99.878316    11.064416    140.38408    139.86852     139.6488   -11.064416   0.54146414 
    2560    2740706.3    100.02313    32.718069    140.39106    139.84732    139.59469   -32.718069   0.54154073 
    2580      2741283    99.629977   -97.805501    140.39803     139.8547    139.60976    97.805501   0.54161731 
    2600    2740712.5    100.05137   -5.5263745    140.40501    139.83717    139.59127    5.5263745    0.5416939 
    2620    2741598.2    99.880683   -98.954072    140.41198    139.86491    139.60175    98.954072   0.54177049 
    2640    2740796.1    100.00969   -69.408879    140.41896    139.81942    139.59938    69.408879   0.54184708 
    2660    2741339.2    99.668232   -230.98032    140.42593    139.81481    139.62471    230.98032   0.54192366 
    2680    2741410.6    99.589274   -13.299631    140.43291    139.82817    139.60807    13.299631   0.54200025 
    2700    2740705.5    99.960175   -110.74339    140.43988    139.79738    139.59597    110.74339   0.54207684 
    2720    2740253.6    99.942454    12.272943    140.44686    139.76348    139.59988   -12.272943   0.54215342 
    2740    2740792.5    99.968476   -45.307703    140.45383    139.75985    139.62402    45.307703   0.54223001 
    2760    2741503.8    100.06943    28.393576    140.46081    139.77189    139.64129   -28.393576    0.5423066 
    2780    2740526.8     100.1183    2.9379706    140.46778    139.74812    139.60834   -2.9379706   0.54238318 
    2800      2741472    100.17299    16.042667    140.47476    139.77237    139.62532   -16.042667   0.54245977 
    2820    2741759.7    100.02305   -95.224953    140.48173    139.76127    139.64413    95.224953   0.54253636 
    2840    2741520.6    100.15213   -33.988312    140.48871    139.75257    139.63371    33.988312   0.54261294 
    2860    2740987.2    100.27009   -75.694422    140.49568    139.72396     139.6282    75.694422   0.54268953 
    2880    2741878.8    100.14789    23.848875    140.50266     139.7514    139.63927   -23.848875   0.54276612 
    2900    2741762.1    100.44718   -67.404004    140.50963    139.75871    139.61909    67.404004    0.5428427 
    2920    2741299.7    100.00925   -38.687227    140.51661    139.72848    139.61882    38.687227   0.54291929 
    2940    2741955.8     100.1154   -6.3459127    140.52358    139.72418    139.64959    6.3459127   0.54299588 
    2960    2742246.5    100.39274    71.246757    140.53056    139.72879    139.65286   -71.246757   0.54307247 
    2980    2742026.8    99.983686   -58.955546    140.53753    139.70413    139.65939    58.955546   0.54314905 
    3000    2742520.7    99.942853    36.974155    140.54451    139.70485    139.67689   -36.974155   0.54322564 
    3020    2742859.3    100.21331   -123.97191    140.55148    139.72904    139.66302    123.97191   0.54330223 
    3040    2743118.1    100.16241   -5.2036728    140.55846    139.73299    139.66532    5.2036728   0.54337881 
    3060    2741549.6    99.955106   -149.28167    140.56543    139.69827    139.61322    149.28167    0.5434554 
    3080    2743660.5    99.738591   -52.093284    140.57241    139.77669     139.6354    52.093284   0.54353199 
    3100    2742621.1    99.778186   -148.57586    140.57938    139.72958    139.62263    148.57586   0.54360857 
    3120      2741931     100.0729   -102.13182    140.58636    139.70996    139.60018    102.13182   0.54368516 
    3140    2742489.2    99.862129   -30.225026    140.59333    139.74738    139.58429    30.225026   0.54376175 
    3160    2741730.2    100.04097   -67.870887    140.60031     139.6925    139.59355    67.870887   0.54383833 
    3180    2742337.3    99.857828    104.63271    140.60728    139.68348    139.62655   -104.63271   0.54391492 
    3200    2740888.9    99.817663   -49.033185    140.61426    139.66592    139.56343    49.033185   0.54399151 
    3220    2742830.4    99.481337    108.11402    140.62123    139.71537    139.60593   -108.11402   0.54406809 
    3240      2741642    99.759588   -7.0790941    140.62821    139.66861    139.58524    7.0790941   0.54414468 
    3260    2742063.3    99.937968   -107.69424    140.63518    139.70583    139.56258    107.69424   0.54422127 
    3280    2742829.2    99.806893   -65.578226    140.64216    139.73452    139.56597    65.578226   0.54429786 
    3300    2743145.4    99.901816   -166.06597    140.64913     139.7131    139.59654    166.06597   0.54437444 
    3320    2743330.1    100.10774    8.2121028    140.65611    139.71347    139.59865   -8.2121028   0.54445103 
    3340    2742979.9    99.980225   -159.23581    140.66308    139.68836      139.599    159.23581   0.54452762 
    3360    2744624.8    100.04659    8.7469185    140.67005    139.73284    139.63132   -8.7469185    0.5446042 
    3380    2743730.5    99.799125   -231.29666    140.67703     139.7319    139.57984    231.29666   0.54468079 
    3400    2743657.4    100.00454    -41.37368      140.684    139.74317    139.55794     41.37368   0.54475738 
    3420    2743571.2    100.02458    -92.21615    140.69098    139.73432    139.55548     92.21615   0.54483396 
    3440    2744504.3    100.00806   -89.522211    140.69795    139.76249    139.56789    89.522211   0.54491055 
    3460    2742535.9    100.08263   -11.577614    140.70493     139.7081    139.51517    11.577614   0.54498714 
    3480    2743485.3     100.2482   -19.799534     140.7119    139.71929    139.54537    19.799534   0.54506372 
    3500    2743763.3    100.20151   -47.878969    140.71888    139.72574    139.54615    47.878969   0.54514031 
    3520    2742839.8    100.20354   -90.621441    140.72585    139.69756     139.5204    90.621441    0.5452169 
    3540    2742711.9     100.1408   -18.519873    140.73283    139.69003    139.51451    18.519873   0.54529348 
    3560    2743370.9     100.0985   -104.51725     140.7398    139.70704    139.52412    104.51725   0.54537007 
    3580      2742782    100.17246    12.883115    140.74678    139.70576    139.48853   -12.883115   0.54544666 
    3600    2743014.6    99.972654   -77.587483    140.75375    139.72664    139.47261    77.587483   0.54552325 
    3620      2743917    100.11078   -107.22858    140.76073    139.74238    139.49587    107.22858   0.54559983 
    3640    2743070.7    100.07136     30.08534     140.7677     139.7249    139.46337    -30.08534   0.54567642 
    3660    2742968.1    99.795883   -123.48925    140.77468    139.72309    139.45306    123.48925   0.54575301 
    3680    2743395.5    99.812713    3.1568816    140.78165     139.7332    139.45778   -3.1568816   0.54582959 
    3700    2743805.6    99.927584   -85.946729    140.78863    139.73726    139.46767    85.946729   0.54590618 
    3720    2742235.5    100.08476    13.991292     140.7956    139.70616    139.41198   -13.991292   0.54598277 
    3740    2743451.8     99.91003   -228.13254    140.80258       139.72    139.45309    228.13254   0.54605935 
    3760    2743110.9    99.981593    50.711176    140.80955    139.71117    139.43767   -50.711176   0.54613594 
    3780    2743450.4    99.890383   -165.53778    140.81653     139.7524    139.40688    165.53778   0.54621253 
    3800    2741835.1    99.713095   -30.382336     140.8235    139.68964    139.38049    30.382336   0.54628911 
    3820    2743108.7    99.971838   -47.824026    140.83048    139.70856    139.41945    47.824026    0.5463657 
    3840    2743056.5    99.847471   -111.50589    140.83745    139.71304    139.40541    111.50589   0.54644229 
    3860    2741756.3    99.840616    11.773851    140.84443    139.67679     139.3686   -11.773851   0.54651887 
    3880    2742193.5     99.88236   -89.719513     140.8514    139.69277    139.36798    89.719513   0.54659546 
    3900    2742654.5    100.06666    30.296716    140.85838    139.72487    139.35248   -30.296716   0.54667205 
    3920      2742760    100.31265   -120.93984    140.86535     139.6998    139.37595    120.93984   0.54674864 
    3940    2741603.9    99.928321   -17.518051    140.87233    139.65599      139.354    17.518051   0.54682522 
    3960    2744098.9    100.21077   -76.126261     140.8793    139.71996    139.41006    76.126261   0.54690181 
    3980    2742429.1    100.01322   -106.39688    140.88628    139.65886    139.37928    106.39688    0.5469784 
    4000    2742948.6    99.813761   -125.81712    140.89325    139.65545    139.40219    125.81712   0.54705498 
    4020      2742973      99.9966   -99.734419    140.90023    139.64937    139.40259    99.734419   0.54713157 
    4040    2744042.1    100.13488    6.9848003     140.9072    139.65059    139.44881   -6.9848003   0.54720816 
    4060    2743168.1    100.10047   -166.53709    140.91418    139.62014    139.42789    166.53709   0.54728474 
    4080    2743874.9    100.21565    3.0293789    140.92115     139.6332    139.44387   -3.0293789   0.54736133 
    4100    2745109.2    99.975199    4.3145515    140.92813    139.64038    139.49252   -4.3145515   0.54743792 
    4120    2743496.6    100.21997    34.507885     140.9351    139.59721    139.44678   -34.507885    0.5475145 
    4140    2744023.8      100.196   -17.220318    140.94208    139.63126    139.43267    17.220318   0.54759109 
    4160    2744443.1    100.17436   -110.07913    140.94905    139.64465     139.4337    110.07913   0.54766768 
    4180    2745931.5    100.49804   -169.10825    140.95603    139.68772    139.45941    169.10825   0.54774427 
    4200    2743971.2    100.17828   -155.48036      140.963    139.60789    139.43264    155.48036   0.54782085 
    4220    2745622.7    100.32256   -154.39991    140.96998    139.64484    139.47274    154.39991   0.54789744 
    4240    2745701.6    100.30497   -86.826705    140.97695    139.65855    139.45616    86.826705   0.54797403 
    4260    2745174.1    100.29978   -92.716131    140.98393    139.63036    139.45062    92.716131   0.54805061 
    4280    2745339.8    100.33099   -33.826063     140.9909    139.62677    139.45572    33.826063    0.5481272 
    4300    2745898.2    100.07266   -46.382557    140.99788    139.63572    139.46825    46.382557   0.54820379 
    4320    2745973.6    100.14419    4.5380317    141.00485    139.62523    139.47566   -4.5380317   0.54828037 
    4340    2745513.1    100.13195   -22.117049    141.01183    139.62212    139.44847    22.117049   0.54835696 
    4360    2746728.3    99.749796   -8.4904317     141.0188    139.65346    139.47198    8.4904317   0.54843355 
    4380    2746763.2    100.05223    -49.23157    141.02578    139.66071    139.45962     49.23157   0.54851013 
    4400    2746501.1    100.07939   -142.20737    141.03275    139.64327    139.45683    142.20737   0.54858672 
    4420    2746383.2     100.0407   -74.545316    141.03973    139.63862    139.44859    74.545316   0.54866331 
    4440    2747015.4    100.17339    -181.4408     141.0467    139.63598    139.47643     181.4408   0.54873989 
    4460    2746036.2    99.967911   -62.536035    141.05368    139.59699    139.45875    62.536035   0.54881648 
    4480    2745854.4     100.0211   -110.83316    141.06065    139.59109    139.44852    110.83316   0.54889307 
    4500    2746005.3    99.921878   -19.373622    141.06763    139.57847    139.46191    19.373622   0.54896966 
    4520    2745986.1    99.712711   -51.699091     141.0746     139.5786     139.4539    51.699091   0.54904624 
    4540    2745029.5    99.769787   -24.018996    141.08157    139.55216    139.42484    24.018996   0.54912283 
    4560    2745609.3    99.711621      80.5573    141.08855    139.56318    139.43638     -80.5573   0.54919942 
    4580    2746095.3    99.780942   -159.43961    141.09552    139.59819    139.41919    159.43961     0.549276 
    4600    2744863.9    99.981654    15.244163     141.1025    139.56329    139.38464   -15.244163   0.54935259 
    4620    2744726.3    100.02982     -239.917    141.10947     139.5351    139.39892      239.917   0.54942918 
    4640    2745992.3    99.853007   -95.004567    141.11645     139.5756    139.41586    95.004567   0.54950576 
    4660    2744949.5    99.769951   -251.57443    141.12342    139.54476    139.38682    251.57443   0.54958235 
    4680    2744317.2    99.789973   -135.69689     141.1304    139.52202    139.37055    135.69689   0.54965894 
    4700    2744835.8    100.04144    -74.96075    141.13737     139.5444    139.36763     74.96075   0.54973552 
    4720    2744765.5    100.05043   -181.78821    141.14435    139.54108    139.36049    181.78821   0.54981211 
    4740    2744753.9    100.39968   -13.802175    141.15132    139.53603    139.35806    13.802175    0.5498887 
    4760    2744809.6    99.851173   -223.84727     141.1583    139.52544    139.36458    223.84727   0.54996528 
    4780    2745498.7    100.32678    105.44791    141.16527    139.51566    139.40245   -105.44791   0.55004187 
    4800    2744580.8    100.32511   -153.48485    141.17225    139.48585    139.37874    153.48485   0.55011846 
    4820    2744946.7    100.47114    13.625751    141.17922    139.50243    139.37387   -13.625751   0.55019505 
    4840      2745349    100.12561   -104.49131     141.1862    139.50638    139.38347    104.49131   0.55027163 
    4860    2744548.9    100.23038    12.002347    141.19317    139.47824    139.36406   -12.002347   0.55034822 
    4880      2744982     100.3408   -111.47934    141.20015    139.49408    139.36335    111.47934   0.55042481 
    4900    2745472.1    100.36675   -160.61728    141.20712    139.50217    139.37326    160.61728   0.55050139 
    4920    2745742.2    100.04335   -41.940491     141.2141    139.50594    139.37632    41.940491   0.55057798 
    4940    2745509.1    100.16551   -193.93227    141.22107    139.51226     139.3513    193.93227   0.55065457 
    4960      2744962    100.25678   -19.636916    141.22805    139.49157    139.33731    19.636916   0.55073115 
    4980    2746332.2     100.0829   -108.48141    141.23502    139.52759    139.36399    108.48141   0.55080774 
    5000    2745916.1    99.963741   -57.382316      141.242    139.53136    139.33223    57.382316   0.55088433 
    5020    2745589.1    100.09504   -69.180428    141.24897    139.50079    139.33928    69.180428   0.55096091 
    5040      2745710    100.00501    30.895045    141.25595    139.50944    139.32991   -30.895045    0.5510375 
    5060    2746049.9     99.99533    -149.7671    141.26292    139.52954    139.32019     149.7671   0.55111409 
    5080    2745612.6    100.02213   -118.04655     141.2699    139.53573    139.28495    118.04655   0.55119067 
    5100    2745680.8    99.927852   -226.73343    141.27687    139.52874    139.28851    226.73343   0.55126726 
    5120    2746232.4    100.03593   -215.91048    141.28385    139.52544    139.31291    215.91048   0.55134385 
    5140    2744639.9    100.09685   -122.28291    141.29082    139.47297    139.27763    122.28291   0.55142044 
    5160    2745316.5    100.03613   -161.28583     141.2978     139.4843    139.29377    161.28583   0.55149702 
    5180    2745157.7    99.996946   -102.00271    141.30477    139.48439    139.27875    102.00271   0.55157361 
    5200    2745267.2    99.991441   -104.85134    141.31175    139.49193    139.26991    104.85134    0.5516502 
    5220    2744777.1    100.00098   -15.144024    141.31872     139.5023    139.22781    15.144024   0.55172678 
    5240    2745903.1    99.736659   -85.197228     141.3257    139.51826    139.26213    85.197228   0.55180337 
    5260    2745620.9    100.12656    92.407731    141.33267    139.51086    139.24833   -92.407731   0.55187996 
    5280      2746143    99.822413    -171.5637    141.33965     139.5325    139.24634     171.5637   0.55195654 
    5300    2746599.9    99.853391   -30.587916    141.34662    139.53801    139.25713    30.587916   0.55203313 
    5320    2746505.2    99.955352   -104.63594     141.3536     139.5389    139.24457    104.63594   0.55210972 
    5340    2746749.8     100.0407   -141.64208    141.36057    139.55245    139.23657    141.64208    0.5521863 
    5360    2746228.2    100.01205   -75.940338    141.36755    139.52727     139.2284    75.940338   0.55226289 
    5380      2747862    100.13207   -174.51541    141.37452    139.55221    139.27945    174.51541   0.55233948 
    5400    2746629.6    100.18253  -0.89314004     141.3815    139.51996    139.24229   0.89314004   0.55241606 
    5420    2747638.7    100.47626   -223.07048    141.38847    139.53172    139.27484    223.07048   0.55249265 
    5440    2747147.3    100.10653     13.52672    141.39545    139.51828    139.25648    -13.52672   0.55256924 
    5460    2748646.7    100.14801   -225.45607    141.40242    139.55882    139.28514    225.45607   0.55264583 
    5480    2747562.1    100.35225   -26.393555     141.4094    139.52543    139.25663    26.393555   0.55272241 
    5500    2748236.9    99.922619   -199.34214    141.41637    139.53018    139.27922    199.34214     0.552799 
    5520    2748753.1    100.12213    -79.01699    141.42335    139.56021    139.26853     79.01699   0.55287559 
    5540    2748637.9     100.0978   -239.59623    141.43032    139.53929    139.27671    239.59623   0.55295217 
    5560    2748631.8    100.20874   -182.59654     141.4373    139.51408     139.2947    182.59654   0.55302876 
    5580    2748783.6    100.27292   -139.62521    141.44427    139.52966    139.27997    139.62521   0.55310535 
    5600    2749036.9    99.949981    -90.52993    141.45125     139.5276    139.28799     90.52993   0.55318193 
    5620    2748177.4    99.833839   -83.973203    141.45822    139.49479    139.27033    83.973203   0.55325852 
    5640    2749746.9    100.02599   -107.78295     141.4652    139.53976    139.29808    107.78295   0.55333511 
    5660    2749014.8     99.91809    8.1834391    141.47217    139.49828    139.29554   -8.1834391   0.55341169 
    5680    2749507.7    99.883605   -121.65208    141.47914    139.50794      139.304    121.65208   0.55348828 
    5700    2748493.9    99.822272   -14.352878    141.48612    139.50283    139.25088    14.352878   0.55356487 
    5720    2749620.1    99.961907   -99.508575    141.49309    139.52226    139.28166    99.508575   0.55364145 
    5740    2748839.7    99.751322   -110.43115    141.50007    139.48062    139.27684    110.43115   0.55371804 
    5760    2748626.4    99.894807   -94.907127    141.50704    139.45019    139.28955    94.907127   0.55379463 
    5780    2749320.4    99.826397   -115.47507    141.51402    139.46983    139.29824    115.47507   0.55387122 
    5800    2749358.9    100.08896   -126.36123    141.52099     139.4737    139.28946    126.36123    0.5539478 
    5820    2748705.6    99.908986   -199.49007    141.52797    139.44605     139.2771    199.49007   0.55402439 
    5840    2748654.9     100.1549   -69.546762    141.53494    139.44198    139.27174    69.546762   0.55410098 
    5860    2749225.4    99.749322   -237.05584    141.54192    139.45436    139.28142    237.05584   0.55417756 
    5880    2748225.6    100.10584   -120.36555    141.54889    139.43798    139.24026    120.36555   0.55425415 
    5900    2749012.4    99.880395   -239.01727    141.55587    139.45144    139.25981    239.01727   0.55433074 
    5920    2747986.7    100.10653   -49.411694    141.56284    139.41249    139.23989    49.411694   0.55440732 
    5940    2748912.1    100.12103   -140.94829    141.56982     139.4598    139.23267    140.94829   0.55448391 
    5960    2747773.5    100.13098   -51.452401    141.57679    139.43853    139.18937    51.452401    0.5545605 
    5980    2748911.4    100.05827   -104.11838    141.58377    139.46413    139.21459    104.11838   0.55463708 
    6000    2747713.7    99.984564   -111.21694    141.59074    139.39972    139.21137    111.21694   0.55471367 
    6020    2748198.3    100.18285   -64.054317    141.59772     139.4104    139.21841    64.054317   0.55479026 
    6040      2748356    100.36441   -149.29976    141.60469    139.40529    139.22463    149.29976   0.55486684 
    6060    2748126.7    100.31066    64.117754    141.61167    139.41904    139.19243   -64.117754   0.55494343 
    6080    2749134.3    100.22766   -95.567851    141.61864    139.45921     139.1965    95.567851   0.55502002 
    6100    2748041.9    100.25462    37.480182    141.62562    139.42575    139.16773   -37.480182   0.55509661 
    6120      2749770     100.1278   -119.90233    141.63259    139.47086    139.20335    119.90233   0.55517319 
    6140    2748107.1    100.27493   -98.348888    141.63957    139.43247    139.15062    98.348888   0.55524978 
    6160    2748618.4     100.3857   -212.55984    141.64654    139.41516    139.18693    212.55984   0.55532637 
    6180    2748020.2    100.06781     -137.944    141.65352    139.40823    139.15671      137.944   0.55540295 
    6200    2749047.3    100.12662   -182.90599    141.66049    139.43958    139.17057    182.90599   0.55547954 
    6220    2748448.8    99.941256   -198.30449    141.66747    139.43529     139.1377    198.30449   0.55555613 
    6240    2748728.2    99.779155   -209.11173    141.67444    139.46343    139.11692    209.11173   0.55563271 
    6260    2749202.3    99.949465   -239.25434    141.68142    139.47347    139.12404    239.25434    0.5557093 
    6280    2748601.4    99.849793   -52.231304    141.68839    139.44926    139.11094    52.231304   0.55578589 
    6300    2748246.5    100.05203   -251.15592    141.69537    139.43361    139.10174    251.15592   0.55586247 
    6320    2748508.8    99.732677   -74.667038    141.70234    139.43084    139.11093    74.667038   0.55593906 
    6340    2749429.1    99.935926   -225.59553    141.70932    139.43711     139.1444    225.59553   0.55601565 
    6360      2747848    99.721798   -44.818077    141.71629    139.40787    139.08671    44.818077   0.55609223 
    6380    2749032.4    99.851663   -180.82829    141.72327    139.44162    139.10614    180.82829   0.55616882 
    6400    2748613.6    99.646203   -13.354515    141.73024    139.41381    139.10585    13.354515   0.55624541 
    6420    2748688.5    100.03012    -117.4052    141.73722    139.42293    139.09369     117.4052     0.556322 
    6440    2748537.7     99.94836   -77.730869    141.74419    139.41721    139.08491    77.730869   0.55639858 
    6460    2749094.3    100.11231   -59.350146    141.75117    139.41904    139.10441    59.350146   0.55647517 
    6480    2749323.3    99.915134   -153.02378    141.75814    139.43017    139.09805    153.02378   0.55655176 
    6500    2749468.7    99.985718   -118.65122    141.76512    139.42637    139.10236    118.65122   0.55662834 
    6520    2749197.3    99.744731   -196.51979    141.77209    139.42074    139.08739    196.51979   0.55670493 
    6540    2749836.6    99.984069   -22.389813    141.77907    139.44446    139.08923    22.389813   0.55678152 
    6560    2749353.2    100.04715   -159.91439    141.78604     139.4065     139.0958    159.91439    0.5568581 
    6580      2749591    100.23752   -107.41471    141.79302     139.4071     139.1004    107.41471   0.55693469 
    6600    2750023.7    99.875282   -148.78092    141.79999    139.42808    139.09451    148.78092   0.55701128 
    6620    2749768.7    100.39689   -190.13088    141.80697    139.40751    139.09529    190.13088   0.55708786 
    6640    2749557.8    100.36739   -156.23262    141.81394    139.39343    139.09183    156.23262   0.55716445 
    6660    2749377.8    100.28386   -186.93405    141.82092    139.38884    139.08047    186.93405   0.55724104 
    6680    2749788.9    100.07663   -136.06099    141.82789     139.4083      139.075    136.06099   0.55731763 
    6700    2749135.6    100.20243   -255.44466    141.83487    139.37742    139.06592    255.44466   0.55739421 
    6720    2749411.5    100.38412   -157.44134    141.84184    139.37791    139.07256    157.44134    0.5574708 
    6740    2749196.5    100.21096   -294.84204    141.84882    139.35892    139.07379    294.84204   0.55754739 
    6760    2749105.4    100.00221   -116.25934    141.85579    139.32857    139.09264    116.25934   0.55762397 
    6780    2748736.2    100.01782   -235.00007    141.86277    139.32079    139.07489    235.00007   0.55770056 
    6800    2749081.7    100.00704   -98.148235    141.86974    139.31975    139.08656    98.148235   0.55777715 
    6820    2748897.2    100.01789   -75.623123    141.87671    139.29555    139.09456    75.623123   0.55785373 
    6840    2749048.6    99.812443   -81.378891    141.88369    139.30213     139.0888    81.378891   0.55793032 
    6860    2748858.8    99.959057   -25.057931    141.89066    139.28934    139.08514    25.057931   0.55800691 
    6880    2749187.2    99.965729   -123.01476    141.89764    139.27873    139.10551    123.01476   0.55808349 
    6900    2749174.3    99.923481   -33.851406    141.90461    139.28644    139.09033    33.851406   0.55816008 
    6920    2749441.9    99.992108   -167.87778    141.91159    139.28859    139.09487    167.87778   0.55823667 
    6940    2750000.4     99.81888   -54.403355    141.91856    139.29437    139.11052    54.403355   0.55831325 
    6960    2749980.9    99.989256   -178.43183    141.92554    139.29966    139.09742    178.43183   0.55838984 
    6980    2750522.7    99.856871   -16.783668    141.93251    139.32396    139.09372    16.783668   0.55846643 
    7000    2750322.3     100.0491   -122.88564    141.93949    139.30288    139.09779    122.88564   0.55854302 
    7020    2750332.1    99.936976    -99.49215    141.94646    139.30306    139.09127     99.49215    0.5586196 
    7040    2750753.3    100.14778    -179.1363    141.95344    139.31537    139.09346     179.1363   0.55869619 
    7060    2750827.2    99.810781   -271.84003    141.96041    139.30624    139.09947    271.84003   0.55877278 
    7080    2750797.2    99.923742   -184.31988    141.96739    139.30948    139.08789    184.31988   0.55884936 
    7100      2750892    99.836282   -345.77052    141.97436    139.30323    139.09208    345.77052   0.55892595 
    7120    2750455.9    100.29292   -162.58102    141.98134    139.25949    139.10689    162.58102   0.55900254 
    7140    2751700.1    100.03473   -335.09726    141.98831    139.28689     139.1356    335.09726   0.55907912 
    7160    2750631.6      100.072   -139.30698    141.99529    139.25102    139.11056    139.30698   0.55915571 
    7180    2751079.3    100.26922   -254.27892    142.00226    139.25974    139.11766    254.27892    0.5592323 
    7200    2750489.8    100.08985   -115.36698    142.00924    139.27026    139.07051    115.36698   0.55930888 
    7220    2751438.5    100.05917    -232.0853    142.01621    139.28613     139.0958     232.0853   0.55938547 
    7240    2751045.5    100.13001   -95.896141    142.02319    139.27967    139.07555    95.896141   0.55946206 
    7260    2750667.6    100.23752   -132.63952    142.03016    139.27543    139.05384    132.63952   0.55953864 
    7280    2751275.9    100.06545   -77.744446    142.03714    139.28668    139.06654    77.744446   0.55961523 
    7300    2751209.7      99.9049   -132.08481    142.04411    139.27707    139.06596    132.08481   0.55969182 
    7320    2751377.9    99.888787   -115.11812    142.05109    139.28656    139.05815    115.11812   0.55976841 
    7340    2750390.8    99.786106   -64.904216    142.05806    139.26392    139.02404    64.904216   0.55984499 
    7360    2751815.4    99.869735   -130.65923    142.06504    139.26485     139.0883    130.65923   0.55992158 
    7380    2751135.5    99.787427   -165.01504    142.07201    139.24377    139.06815    165.01504   0.55999817 
    7400    2751226.6    99.730413   -172.89822    142.07899    139.24547    139.06423    172.89822   0.56007475 
    7420    2750657.2    99.721368   -121.44005    142.08596    139.21384    139.06021    121.44005   0.56015134 
    7440    2751121.2    99.750758   -158.36443    142.09294    139.25134    139.03939    158.36443   0.56022793 
    7460    2751058.3    99.618314   -200.94129    142.09991    139.23571    139.04499    200.94129   0.56030451 
    7480    2750931.2    99.911109   -196.49562    142.10689    139.22207    139.04537    196.49562    0.5603811 
    7500    2750979.4     99.83474   -185.19492    142.11386    139.24292    139.02016    185.19492   0.56045769 
    7520    2750295.8    99.771453   -147.76308    142.12084    139.21838    139.00329    147.76308   0.56053427 
    7540    2750741.6    99.863158   -187.87186    142.12781    139.20678    139.03058    187.87186   0.56061086 
    7560    2750053.3    99.849118   -156.17951    142.13479    139.23278    138.96302    156.17951   0.56068745 
    7580    2750601.2    100.00776   -165.55247    142.14176    139.22795     138.9887    165.55247   0.56076403 
    7600    2750457.6    99.893054   -175.20628    142.14874    139.21729    138.98527    175.20628   0.56084062 
    7620    2750941.6    99.864692   -172.75865    142.15571    139.24315    138.97709    172.75865   0.56091721 
    7640    2750796.7    100.04121   -232.37072    142.16269    139.22235    138.98371    232.37072    0.5609938 
    7660    2750685.4    100.16523   -151.40379    142.16966    139.19799     138.9956    151.40379   0.56107038 
    7680    2750660.4    100.15109   -147.76518    142.17664     139.2031    138.98241    147.76518   0.56114697 
    7700    2750558.6    100.07097    -47.88806    142.18361    139.20127    138.97228     47.88806   0.56122356 
    7720    2750705.9    100.03595   -161.36677    142.19059    139.19839    138.97577    161.36677   0.56130014 
    7740      2750762    100.20032   -6.5239648    142.19756    139.21454    138.95567    6.5239648   0.56137673 
    7760    2750903.6    100.02582   -140.81621    142.20454    139.21499    138.95556    140.81621   0.56145332 
    7780    2750486.2    100.00532   -122.05873    142.21151    139.20462      138.938    122.05873    0.5615299 
    7800    2751103.8     100.0868   -151.62844    142.21849    139.22916     138.9379    151.62844   0.56160649 
    7820      2751197    99.919276   -249.39922    142.22546    139.23445    138.93052    249.39922   0.56168308 
    7840    2751219.6    99.813279   -184.09135    142.23244    139.20354    138.95569    184.09135   0.56175966 
    7860    2750593.8    99.787096    -232.3455    142.23941    139.20762     138.9132     232.3455   0.56183625 
    7880    2751859.1    99.775439   -131.47119    142.24639    139.21267    138.96524    131.47119   0.56191284 
    7900    2751385.4    99.964875   -237.05894    142.25336     139.1925    138.95464    237.05894   0.56198942 
    7920    2751157.4    99.637689    -116.0374    142.26034    139.19616    138.93266     116.0374   0.56206601 
    7940    2751587.1    99.722298   -258.83516    142.26731    139.18427    138.95942    258.83516    0.5621426 
    7960    2751546.2     99.75132   -135.35335    142.27429    139.16775    138.96704    135.35335   0.56221919 
    7980    2751491.5    99.594565   -275.27605    142.28126    139.19655    138.92871    275.27605   0.56229577 
    8000    2751076.3    100.16641    -108.4699    142.28823    139.16181    138.93561     108.4699   0.56237236 
    8020    2751903.4    99.864941   -236.56289    142.29521    139.15796    138.97441    236.56289   0.56244895 
    8040    2751452.7    99.855295   -105.58668    142.30218    139.14727    138.95551    105.58668   0.56252553 
    8060      2751514     100.0193   -201.16026    142.30916    139.16212    138.93698    201.16026   0.56260212 
    8080    2751194.9    99.859696   -157.52876    142.31613    139.15132    138.92484    157.52876   0.56267871 
    8100    2751436.3    99.918487   -150.27479    142.32311    139.16116    138.92039    150.27479   0.56275529 
    8120    2750888.9     100.0242    -195.3324    142.33008    139.12122    138.92582     195.3324   0.56283188 
    8140    2750997.1    100.09091   -27.274849    142.33706     139.1147    138.93098    27.274849   0.56290847 
    8160      2750976    100.09063   -209.41622    142.34403    139.10346    138.93434    209.41622   0.56298505 
    8180    2751678.9    100.27397   -17.038633    142.35101    139.11597    138.95053    17.038633   0.56306164 
    8200    2751007.6    99.901918   -208.15489    142.35798    139.09698    138.92879    208.15489   0.56313823 
    8220    2750927.7    100.00136   -81.369914    142.36496    139.11706     138.8979    81.369914   0.56321481 
    8240    2750975.8    99.996423   -210.53381    142.37193    139.10744    138.90313    210.53381    0.5632914 
    8260      2750830    100.16972   -166.29559    142.37891    139.09866    138.89773    166.29559   0.56336799 
    8280    2751490.5    100.00136   -215.38389    142.38588    139.10437    138.91857    215.38389   0.56344458 
    8300    2751450.4    99.972851   -296.02132    142.39286    139.07813    138.93595    296.02132   0.56352116 
    8320    2751430.7    100.14378   -105.57276    142.39983    139.09588    138.91043    105.57276   0.56359775 
    8340    2751387.4    100.01799   -247.06267    142.40681    139.10878    138.88855    247.06267   0.56367434 
    8360    2751564.2    99.934477   -112.76403    142.41378    139.10556    138.89389    112.76403   0.56375092 
    8380    2751125.2    99.810529   -265.85196    142.42076    139.10275    138.86773    265.85196   0.56382751 
    8400    2751214.9    100.09132   -162.03216    142.42773    139.12147    138.84678    162.03216    0.5639041 
    8420    2750919.6     99.68173    -229.3547    142.43471    139.10901    138.83751     229.3547   0.56398068 
    8440    2751577.7    99.739621   -204.59362    142.44168    139.13856    138.83443    204.59362   0.56405727 
    8460    2750988.3    99.952587   -131.43009    142.44866    139.10056    138.83582    131.43009   0.56413386 
    8480    2750774.9    99.815656   -150.00165    142.45563     139.0823    138.83647    150.00165   0.56421044 
    8500    2751074.2    99.860466   -65.138825    142.46261    139.08296    138.84412    65.138825   0.56428703 
    8520    2751257.6    99.627799   -178.12427    142.46958    139.09608    138.83348    178.12427   0.56436362 
    8540    2750934.8    99.882094   -158.56803    142.47656    139.05097    138.85542    158.56803    0.5644402 
    8560      2751495    99.857708    -201.9214    142.48353    139.07496    138.85295     201.9214   0.56451679 
    8580    2751444.6    99.743602     -264.173    142.49051    139.07849    138.84008      264.173   0.56459338 
    8600    2751503.8    100.10623   -230.99743    142.49748    139.04599    138.86873    230.99743   0.56466997 
    8620    2751067.5    100.03731   -211.56304    142.50446    139.02819    138.85769    211.56304   0.56474655 
    8640    2750947.3     99.89692   -138.05734    142.51143    139.00741    138.86558    138.05734   0.56482314 
    8660    2751565.2    100.09346   -184.21532    142.51841    138.99658     138.9008    184.21532   0.56489973 
    8680    2751082.5    100.10621   -169.91991    142.52538    138.99255    138.87365    169.91991   0.56497631 
    8700    2752077.5    99.902089   -261.97033    142.53236    139.01588    138.89378    261.97033    0.5650529 
    8720    2751059.4    99.773637   -93.972932    142.53933    138.96834    138.88309    93.972932   0.56512949 
    8740    2752000.5    100.11312   -228.09309    142.54631    138.98958    138.90258    228.09309   0.56520607 
    8760      2751811    99.998397   -156.45963    142.55328    138.99792    138.87788    156.45963   0.56528266 
    8780    2752406.7    99.895664   -162.58755    142.56026     139.0172    138.88189    162.58755   0.56535925 
    8800    2752174.7    100.00859   -151.30516    142.56723    139.03365    138.84695    151.30516   0.56543583 
    8820    2752415.1    100.05539   -157.05211    142.57421    139.05878     138.8272    157.05211   0.56551242 
    8840    2752639.7    100.16333   -101.14293    142.58118    139.03183    138.85864    101.14293   0.56558901 
    8860    2752075.6    99.997063   -92.821752    142.58816    139.02283    138.83239    92.821752    0.5656656 
    8880    2753149.7    100.00742   -203.51442    142.59513    139.05793    138.84472    203.51442   0.56574218 
    8900    2752945.9    100.00437   -123.00588    142.60211    139.00938    138.87614    123.00588   0.56581877 
    8920    2753795.7    100.01743   -257.61086    142.60908    139.03432     138.8873    257.61086   0.56589536 
    8940    2752644.2    99.882721   -147.88844    142.61606    139.03225     138.8245    147.88844   0.56597194 
    8960    2753986.1    99.854271   -251.21337    142.62303    139.05447    138.86319    251.21337   0.56604853 
    8980    2753721.7    99.871914   -140.09356    142.63001    139.06422    138.83333    140.09356   0.56612512 
    9000      2754094    99.785505    -219.0935    142.63698    139.08162    138.82794     219.0935    0.5662017 
    9020    2754240.5    99.814248   -161.94437    142.64396     139.0752    138.83495    161.94437   0.56627829 
    9040    2754632.6    100.04666   -141.99827    142.65093    139.10377     138.8194    141.99827   0.56635488 
    9060    2755005.4    99.807908   -286.11691    142.65791    139.12026    138.81494    286.11691   0.56643146 
    9080      2754569    99.575283   -187.73605    142.66488    139.09727    138.80911    187.73605   0.56650805 
    9100    2755127.2    99.741585    -247.1951    142.67186    139.11978    138.80799     247.1951   0.56658464 
    9120    2754675.2    99.709969   -73.920654    142.67883     139.1113    138.78689    73.920654   0.56666122 
    9140    2754891.8    99.809538   -273.01631     142.6858    139.10855    138.79377    273.01631   0.56673781 
    9160      2754768    99.678854   -83.243774    142.69278    139.11168    138.77762    83.243774    0.5668144 
    9180    2755352.5    99.809287    -304.4479    142.69975    139.14263    138.76941     304.4479   0.56689099 
    9200    2754037.6    99.895706   -210.69554    142.70673    139.09411    138.74478    210.69554   0.56696757 
    9220    2754476.8    99.763069   -254.54955     142.7137     139.1209    138.73341    254.54955   0.56704416 
    9240      2754793     99.86495   -252.81362    142.72068     139.1489    138.71464    252.81362   0.56712075 
    9260    2754650.3    99.906593   -226.74775    142.72765    139.12508    138.72442    226.74775   0.56719733 
    9280    2754919.7    99.544837   -291.20969    142.73463    139.14214     138.7142    291.20969   0.56727392 
    9300    2754681.9    99.783728   -67.837677     142.7416    139.12361    138.71392    67.837677   0.56735051 
    9320    2754793.7     100.0303   -214.23129    142.74858    139.13055    138.70585    214.23129   0.56742709 
    9340      2754093    100.01391    7.0200386    142.75555    139.10768    138.68659   -7.0200386   0.56750368 
    9360    2754659.2    99.895832   -298.72464    142.76253    139.11816    138.69788    298.72464   0.56758027 
    9380    2754805.8     100.0559   -54.249125     142.7695    139.08512    138.73143    54.249125   0.56765685 
    9400    2754619.5    99.938284   -313.54109    142.77648    139.06017    138.74016    313.54109   0.56773344 
    9420    2753793.2    100.01831   -59.271274    142.78345    139.04837    138.70354    59.271274   0.56781003 
    9440    2754655.6    100.11836    -282.6478    142.79043    139.06727    138.72134     282.6478   0.56788661 
    9460    2754480.1    100.15596   -195.03091     142.7974    139.06171    138.71127    195.03091    0.5679632 
    9480    2755180.1    100.12079    -245.8814    142.80438    139.08827    138.71326     245.8814   0.56803979 
    9500    2754555.1     99.83572   -250.27197    142.81135    139.05796    138.70524    250.27197   0.56811638 
    9520    2754869.2    100.10953   -171.88684    142.81833    139.06212    138.71013    171.88684   0.56819296 
    9540    2754904.2    100.21484   -294.09458     142.8253    139.05812    138.70911    294.09458   0.56826955 
    9560    2754680.5    100.01238   -127.78735    142.83228    139.03198    138.71715    127.78735   0.56834614 
    9580    2754916.7    99.978206   -287.68548    142.83925    139.04189    138.71239    287.68548   0.56842272 
    9600      2754876    100.13869   -142.97543    142.84623    139.06951    138.67602    142.97543   0.56849931 
    9620      2755278    100.09709   -232.75864     142.8532    139.06835    138.69063    232.75864    0.5685759 
    9640    2755407.1     100.0751   -228.68745    142.86018    139.08056    138.67819    228.68745   0.56865248 
    9660    2755552.8    99.855643   -304.79254    142.86715    139.08723     138.6721    304.79254   0.56872907 
    9680    2755345.2    99.979061   -217.45709    142.87413    139.07483    138.66724    217.45709   0.56880566 
    9700    2755422.4    99.928141   -177.94861     142.8811    139.06803    138.67114    177.94861   0.56888224 
    9720    2755437.2    99.771878   -196.82714    142.88808    139.07434    138.65883    196.82714   0.56895883 
    9740    2755378.4    99.730493   -60.915183    142.89505    139.06343    138.65997    60.915183   0.56903542 
    9760    2755590.5    99.982749   -218.01279    142.90203    139.06366    138.66365    218.01279     0.569112 
    9780    2756338.8    100.24962   -133.89046      142.909    139.10586    138.65246    133.89046   0.56918859 
    9800    2756481.7    99.689905   -293.79231    142.91598    139.08987    138.66882    293.79231   0.56926518 
    9820    2756087.3    99.937456    -162.7161    142.92295    139.07586    138.65618     162.7161   0.56934177 
    9840    2756417.2    99.965848   -319.24472    142.92993    139.06936     138.6725    319.24472   0.56941835 
    9860    2757105.8    99.708589   -249.14607     142.9369    139.09678    138.67303    249.14607   0.56949494 
    9880    2756877.5    99.783496   -315.35309    142.94388    139.08437    138.66715    315.35309   0.56957153 
    9900    2756360.1    99.703002   -221.77507    142.95085    139.07886    138.63985    221.77507   0.56964811 
    9920    2756766.1    100.06195   -255.70584    142.95783    139.08855    138.64385    255.70584    0.5697247 
    9940    2757067.1    99.814086   -292.49635     142.9648    139.08721    138.65356    292.49635   0.56980129 
    9960    2755998.8    99.715227   -205.26055    142.97178    139.05125    138.62891    205.26055   0.56987787 
    9980    2756544.3    99.960807   -277.29359    142.97875    139.06584    138.63504    277.29359   0.56995446 
   10000    2755839.6    100.04062   -115.40241    142.98573    139.01723    138.64129    115.40241   0.57003105 
   10020    2756455.6    100.14304   -324.08194     142.9927    139.03788    138.64493    324.08194   0.57010763 
   10040    2756132.6    100.24516    -91.37661    142.99968     139.0314    138.62839     91.37661   0.57018422 
   10060      2756120    100.14723   -204.94597    143.00665    139.01142    138.64091    204.94597   0.57026081 
   10080    2756315.6    100.32867   -48.325605    143.01363    139.01457    138.64084    48.325605   0.57033739 
   10100    2755876.9    99.927473   -203.45161     143.0206    139.03569    138.59096    203.45161   0.57041398 
   10120    2756328.2    100.19765   -154.21876    143.02758    139.03692    138.60567    154.21876   0.57049057 
   10140    2755951.1    100.03109    -165.4787    143.03455    139.02843    138.58842     165.4787   0.57056716 
   10160    2755393.2    100.15514   -169.19441    143.04153    139.03346    138.54859    169.19441   0.57064374 
   10180    2755206.3    100.02872   -144.95036     143.0485    139.01919    138.54666    144.95036   0.57072033 
   10200      2755490    100.10703   -210.13437    143.05548    139.02752    138.54587    210.13437   0.57079692 
   10220    2754971.2    99.877633   -140.48433    143.06245    139.01952      138.521    140.48433    0.5708735 
   10240    2755171.5    100.01154   -245.10943    143.06943    138.98794    138.55579    245.10943   0.57095009 
   10260      2755394    100.10883   -187.83278     143.0764    138.98702    138.56114    187.83278   0.57102668 
   10280    2755451.8    99.862595   -356.80454    143.08338    138.99546    138.54889    356.80454   0.57110326 
   10300    2755726.2    100.09014   -261.90036    143.09035    138.98564    138.56572    261.90036   0.57117985 
   10320    2755678.6    100.20235   -315.71875    143.09732    138.98266    138.55953    315.71875   0.57125644 
   10340    2756017.3    99.938942   -165.47645     143.1043    138.99349    138.55902    165.47645   0.57133302 
   10360      2755781    99.977987   -271.31749    143.11127    138.97884    138.55499    271.31749   0.57140961 
   10380    2756373.2    100.03206   -242.99253    143.11825     138.9894    138.56749    242.99253    0.5714862 
   10400    2756170.6    99.785146   -284.08214    143.12522    138.98958    138.55037    284.08214   0.57156278 
   10420    2756528.5    99.857712   -191.20594     143.1322    138.99277    138.55842    191.20594   0.57163937 
   10440    2756590.1    99.812369   -242.67144    143.13917     138.9855    138.56202    242.67144   0.57171596 
   10460    2756630.3    99.878784   -214.86439    143.14615    138.98935    138.55344    214.86439   0.57179255 
   10480    2756681.5    99.982307   -145.91447    143.15312    138.96674    138.57181    145.91447   0.57186913 
   10500    2756694.4     100.2209   -184.79953     143.1601    138.95302    138.57939    184.79953   0.57194572 
   10520    2756934.3    100.50142   -118.82291    143.16707    138.97987    138.55792    118.82291   0.57202231 
   10540    2757348.2    100.38198   -231.66494    143.17405     138.9539    138.59787    231.66494   0.57209889 
   10560    2757085.7    100.35976   -106.84463    143.18102    138.94697    138.58484    106.84463   0.57217548 
   10580    2756782.1    100.29446   -163.36213      143.188    138.94806    138.56174    163.36213   0.57225207 
   10600      2756791    100.21352   -129.51493    143.19497    138.91467    138.58874    129.51493   0.57232865 
   10620      2756988    100.09831   -169.76503    143.20195    138.92034    138.58624    169.76503   0.57240524 
   10640    2756705.1    100.43827   -126.64859    143.20892    138.92614    138.55948    126.64859   0.57248183 
   10660    2756441.3    100.32407    -194.9927     143.2159    138.90045     138.5651     194.9927   0.57255841 
   10680      2756832    100.39686   -183.12671    143.22287    138.91401    138.56446    183.12671     0.572635 
   10700    2756461.1    100.20353    -254.7665    143.22985    138.90796    138.54512     254.7665   0.57271159 
   10720    2756523.6    99.904378   -294.07401    143.23682    138.88223    138.56717    294.07401   0.57278817 
   10740    2756135.5    99.902113   -239.47959     143.2438    138.86671     138.5564    239.47959   0.57286476 
   10760    2756038.5    99.997647   -321.70905    143.25077    138.86469    138.54679    321.70905   0.57294135 
   10780    2755942.2     100.1877   -296.39561    143.25775    138.85934    138.54054    296.39561   0.57301794 
   10800    2756137.2    100.04756   -295.59995    143.26472    138.85873    138.54421    295.59995   0.57309452 
   10820    2755986.4    99.896011   -232.77532     143.2717     138.8713    138.51735    232.77532   0.57317111 
   10840    2755509.3    100.06399   -267.54503    143.27867    138.84507    138.51279    267.54503    0.5732477 
   10860    2755763.9    100.22397   -177.73622    143.28565    138.85797    138.50597    177.73622   0.57332428 
   10880    2756204.3    99.939634   -279.68325    143.29262    138.87072    138.50865    279.68325   0.57340087 
   10900    2756438.5    99.839566   -165.94966     143.2996    138.85012    138.53422    165.94966   0.57347746 
   10920    2756304.6    99.927386   -262.23395    143.30657    138.84079    138.53006    262.23395   0.57355404 
   10940    2757661.4    100.07217   -130.26103    143.31355    138.88413    138.54826    130.26103   0.57363063 
   10960    2757642.3    100.07665   -218.68054    143.32052    138.86143     138.5632    218.68054   0.57370722 
   10980    2757659.9    99.846037   -137.29729     143.3275    138.84872    138.57003    137.29729    0.5737838 
   11000    2757960.4    100.02595   -161.39099    143.33447    138.83634    138.59074    161.39099   0.57386039 
   11020    2757860.3    99.914623   -159.17335    143.34145    138.82944    138.58585    159.17335   0.57393698 
   11040    2758209.9    99.927028   -227.82092    143.34842    138.84311    138.58304    227.82092   0.57401356 
   11060    2758212.2       100.09   -227.18081     143.3554    138.84727    138.57225    227.18081   0.57409015 
   11080    2758807.4     99.84536   -245.33422    143.36237    138.87039    138.57234    245.33422   0.57416674 
   11100    2758281.8    99.929732   -239.19269    143.36935    138.85331    138.55624    239.19269   0.57424333 
   11120    2757908.2    99.860056   -179.28239    143.37632    138.82341    138.56057    179.28239   0.57431991 
   11140    2758402.9    99.881624   -289.39175     143.3833    138.83097    138.57114    289.39175    0.5743965 
   11160    2758068.7    99.972013   -233.37796    143.39027     138.8112    138.56734    233.37796   0.57447309 
   11180    2758165.2    100.10336   -371.76155    143.39725    138.79743     138.5792    371.76155   0.57454967 
   11200    2757503.6    100.26747   -194.08062    143.40422    138.77672    138.55989    194.08062   0.57462626 
   11220    2757994.2    100.32764   -356.31756     143.4112    138.78174    138.57279    356.31756   0.57470285 
   11240      2757556     100.4077   -219.38366    143.41817    138.76558    138.56017    219.38366   0.57477943 
   11260    2758158.5    100.44213   -369.28887    143.42515    138.77454    138.57476    369.28887   0.57485602 
   11280      2758426    100.20393   -221.37759    143.43212     138.7994    138.55664    221.37759   0.57493261 
   11300    2757998.1    100.18247   -235.38138     143.4391     138.7747    138.55306    235.38138   0.57500919 
   11320    2758367.3     100.0564   -268.02629    143.44607    138.78219    138.55739    268.02629   0.57508578 
   11340    2758444.9    100.08544   -136.66448    143.45305    138.79098    138.54578    136.66448   0.57516237 
   11360    2758738.7    100.45535    -330.8677    143.46002    138.78999    138.55479     330.8677   0.57523896 
   11380    2757976.7    100.14974   -76.123267      143.467    138.77309    138.52665    76.123267   0.57531554 
   11400    2759470.8    100.04768    -319.4062    143.47397    138.82794     138.5402     319.4062   0.57539213 
   11420    2759767.6    100.15922   -181.91633    143.48095    138.80844    138.56783    181.91633   0.57546872 
   11440    2759946.3    99.795793   -329.56129    143.48792    138.80468    138.57382    329.56129    0.5755453 
   11460    2759558.9    100.03396   -189.57012    143.49489      138.809    138.54333    189.57012   0.57562189 
   11480    2759824.4    99.992063    -323.7207    143.50187    138.79148    138.56741     323.7207   0.57569848 
   11500    2760363.6    99.775134   -291.00419    143.50884    138.80788    138.57136    291.00419   0.57577506 
   11520    2760323.4    100.09591   -385.34054    143.51582    138.83254    138.53801    385.34054   0.57585165 
   11540    2760515.8    100.13124   -194.08384    143.52279    138.82065    138.55279    194.08384   0.57592824 
   11560    2759808.9    99.892409   -142.28917    143.52977    138.80215    138.52904    142.28917   0.57600482 
   11580      2760592    99.758982   -203.75431    143.53674    138.83924     138.5246    203.75431   0.57608141 
   11600    2760543.4    99.999817   -207.63087    143.54372    138.81941    138.53522    207.63087     0.576158 
   11620    2760771.7    100.02717   -279.29701    143.55069    138.81286    138.54648    279.29701   0.57623458 
   11640    2760687.5    100.06711   -184.23418    143.55767    138.82145    138.52695    184.23418   0.57631117 
   11660    2760617.4    100.02244   -352.10858    143.56464    138.81784     138.5203    352.10858   0.57638776 
   11680    2760731.7    100.08436   -194.09468    143.57162    138.81865     138.5185    194.09468   0.57646435 
   11700    2760869.2    100.11766   -297.28822    143.57859    138.85281     138.4846    297.28822   0.57654093 
   11720    2760832.5    99.947589   -193.73992    143.58557     138.8351    138.49369    193.73992   0.57661752 
   11740    2761066.6    99.943956   -217.53665    143.59254    138.83187    138.50193    217.53665   0.57669411 
   11760    2761129.7    100.00715   -298.07784    143.59952    138.85554    138.47476    298.07784   0.57677069 
   11780    2761005.9    100.08338   -265.23471    143.60649    138.86286    138.45452    265.23471   0.57684728 
   11800      2760417    100.08236   -222.24529    143.61347    138.82841    138.45261    222.24529   0.57692387 
   11820      2759890    99.684811   -133.01073    143.62044    138.83619    138.41171    133.01073   0.57700045 
   11840    2761044.9    100.11416   -295.96425    143.62742     138.8476    138.45153    295.96425   0.57707704 
   11860    2760726.2     99.80497   -180.10465    143.63439    138.81125    138.46507    180.10465   0.57715363 
   11880    2761178.6    99.827991   -351.22769    143.64137    138.83422    138.45812    351.22769   0.57723021 
   11900    2760485.7    99.967116   -197.06947    143.64834    138.82123    138.42961    197.06947    0.5773068 
   11920    2760904.1    99.813335   -271.48378    143.65532    138.81817    138.44692    271.48378   0.57738339 
   11940    2760470.6    99.725579   -177.14876    143.66229    138.83552    138.40116    177.14876   0.57745997 
   11960    2760843.5    99.694162   -323.37679    143.66927    138.84308    138.40561    323.37679   0.57753656 
   11980    2760978.4    99.629039     -188.794    143.67624    138.82916    138.41952      188.794   0.57761315 
   12000    2760916.1    99.964387   -284.47624    143.68322    138.83575    138.40312    284.47624   0.57768974 
   12020    2761552.8    99.746951   -242.45608    143.69019    138.84829     138.4158    242.45608   0.57776632 
   12040    2760617.4    99.887873   -238.67986    143.69717    138.80476     138.4056    238.67986   0.57784291 
   12060    2760564.4     99.90222   -235.98488    143.70414    138.82549    138.37556    235.98488    0.5779195 
   12080    2760111.4    100.11932   -141.61997    143.71112    138.81454    138.35705    141.61997   0.57799608 
   12100    2760592.4    100.00751   -350.05308    143.71809     138.7914    138.39752    350.05308   0.57807267 
   12120      2759888    99.942829   -153.82988    143.72507    138.76211    138.38468    153.82988   0.57814926 
   12140    2760547.4    100.19283     -276.637    143.73204    138.76224     138.4109      276.637   0.57822584 
   12160    2759850.7    99.951174    -139.5169    143.73902     138.7422    138.38925     139.5169   0.57830243 
   12180    2760855.8    100.21964   -248.57443    143.74599    138.77049    138.40471    248.57443   0.57837902 
   12200    2760063.6    100.44565   -203.12398    143.75297    138.74157    138.38712    203.12398    0.5784556 
   12220    2760000.4    100.34747   -288.95843    143.75994    138.69956    138.41915    288.95843   0.57853219 
   12240    2760202.1    100.18088   -252.46189    143.76692    138.70876    138.41337    252.46189   0.57860878 
   12260    2759929.4    100.16761   -267.42021    143.77389    138.71002    138.39172    267.42021   0.57868536 
   12280    2760858.3    100.03047   -316.24024    143.78087    138.70953    138.43207    316.24024   0.57876195 
   12300    2760038.6    100.05924   -199.63911    143.78784    138.67519    138.41852    199.63911   0.57883854 
   12320    2760815.8    99.876896   -286.33032    143.79482    138.69808    138.42794    286.33032   0.57891513 
   12340    2760619.1    100.10483   -207.49311    143.80179    138.67343    138.43596    207.49311   0.57899171 
   12360    2761595.4    100.13893   -358.81733    143.80877    138.69948     138.4522    358.81733    0.5790683 
   12380    2761069.8    99.875334    -284.6541    143.81574    138.66052    138.45802     284.6541   0.57914489 
   12400      2761513      100.151   -346.05265    143.82272    138.67545    138.45863    346.05265   0.57922147 
   12420    2761207.1    99.919608   -235.79597    143.82969    138.67343    138.43859    235.79597   0.57929806 
   12440    2761215.4    99.944315   -325.54621    143.83667    138.65969    138.44601    325.54621   0.57937465 
   12460    2761039.1    100.16155   -179.36373    143.84364    138.64287    138.44726    179.36373   0.57945123 
   12480    2761049.3    100.22711   -222.28373    143.85062    138.63807    138.44585    222.28373   0.57952782 
   12500    2760632.3    99.929075   -215.71637    143.85759    138.61416    138.44211    215.71637   0.57960441 
   12520    2760252.1    100.05638   -232.31656    143.86457    138.61831    138.41218    232.31656   0.57968099 
   12540    2761145.9    99.985282   -354.75239    143.87154    138.64815    138.42049    354.75239   0.57975758 
   12560    2760191.6    100.00349   -182.44552    143.87852    138.59822    138.41579    182.44552   0.57983417 
   12580    2760980.5    99.800161   -358.05821    143.88549    138.60711    138.43976    358.05821   0.57991075 
   12600    2760848.4    99.965349   -169.82273    143.89246    138.60807    138.42547    169.82273   0.57998734 
   12620    2761657.5    99.758226   -348.14523    143.89944    138.60835    138.45904    348.14523   0.58006393 
   12640    2761170.3    99.787108   -157.15621    143.90641    138.57941    138.45681    157.15621   0.58014052 
   12660    2761094.1    99.966819   -250.07385    143.91339    138.59141    138.43429    250.07385    0.5802171 
   12680    2761227.6    99.898705   -180.63401    143.92036    138.58158    138.44409    180.63401   0.58029369 
   12700    2762045.4    99.864857   -207.03713    143.92734    138.62455    138.43546    207.03713   0.58037028 
   12720      2761369    99.708793   -276.40441    143.93431    138.61442    138.40498    276.40441   0.58044686 
   12740    2761903.9     99.83103   -187.29217    143.94129    138.58884    138.45062    187.29217   0.58052345 
   12760    2762435.1    99.860086   -337.65811    143.94826    138.58977    138.46961    337.65811   0.58060004 
   12780    2762509.6    99.508902   -249.46815    143.95524    138.60679    138.44964    249.46815   0.58067662 
   12800    2762497.2    99.762913    -339.2573    143.96221    138.59419    138.45489     339.2573   0.58075321 
   12820    2761581.9    99.800536   -216.70155    143.96919     138.5817    138.41478    216.70155    0.5808298 
   12840    2762320.9    99.840597   -324.63303    143.97616    138.59835    138.42849    324.63303   0.58090638 
   12860    2761188.8    100.01207   -260.40271    143.98314    138.56993    138.39343    260.40271   0.58098297 
   12880    2761460.8    100.07612   -310.72479    143.99011    138.58183    138.38847    310.72479   0.58105956 
   12900    2761231.1    100.05817   -291.25251    143.99709    138.59136    138.36075    291.25251   0.58113614 
   12920    2761433.2    99.921523   -270.62198    144.00406    138.57916    138.37635    270.62198   0.58121273 
   12940    2760913.4    99.778841   -198.35593    144.01104    138.56752    138.35522    198.35593   0.58128932 
   12960    2760966.8    99.888302    -217.3419    144.01801     138.5978    138.32097     217.3419   0.58136591 
   12980    2761130.7    100.13227   -241.51894    144.02499    138.60018    138.32011    241.51894   0.58144249 
   13000    2761037.6    99.944577   -309.36156    144.03196    138.59491    138.31401    309.36156   0.58151908 
   13020    2760655.2    100.19402   -253.96765    144.03894    138.58534     138.2977    253.96765   0.58159567 
[...]
  396760    4320492.9    100.06205   -194.11746     277.8666    125.03255    124.35803    194.11746    2.0510681 
  396780    4318548.3    100.03616   -12.747413    277.87358    124.99614    124.33515    12.747413    2.0511447 
  396800    4320466.3    99.984108    -234.7247    277.88055    124.99968    124.38372     234.7247    2.0512213 
  396820    4319472.1    99.775622   -45.895757    277.88753    124.97302    124.37851    45.895757    2.0512979 
  396840    4320397.5    100.10369   -233.01022     277.8945    124.99017    124.38496    233.01022    2.0513745 
  396860    4319304.4    99.799252    -19.52075    277.90148    124.97383    124.36663     19.52075    2.0514511 
  396880    4320668.2     99.78751   -205.86134    277.90845    124.98788    124.38879    205.86134    2.0515277 
  396900    4319962.6    99.804073  -0.18570364    277.91543    124.97336    124.37981   0.18570364    2.0516042 
  396920    4320455.3    99.880736   -196.21745     277.9224    124.96864    124.39557    196.21745    2.0516808 
  396940    4320050.1    99.896506   -97.449683    277.92938    124.98194    124.36754    97.449683    2.0517574 
  396960    4321053.7     99.83418    -153.7437    277.93635    124.98249    124.39277     153.7437     2.051834 
  396980    4319980.3    99.756695   -70.681725    277.94333    124.97846    124.36276    70.681725    2.0519106 
  397000    4320130.8    99.863468   -95.643832     277.9503    124.98226    124.36019    95.643832    2.0519872 
  397020    4319497.5    99.858291   -10.734529    277.95728      124.993    124.32815    10.734529    2.0520638 
  397040    4321056.6    99.810316   -106.55623    277.96425    125.01583     124.3472    106.55623    2.0521404 
  397060    4320443.5    99.710454    -74.93835    277.97123    125.00858    124.33365     74.93835    2.0522169 
  397080      4320548    99.910718   -130.20058     277.9782    125.02036    124.32182    130.20058    2.0522935 
  397100      4321924    100.02137   -131.21938    277.98518    125.04096     124.3378    131.21938    2.0523701 
  397120    4321258.4    100.23376   -109.03284    277.99215    125.02219     124.3342    109.03284    2.0524467 
  397140    4320215.1    99.996003   -79.310352    277.99913    125.01127    124.31192    79.310352    2.0525233 
  397160    4321739.3    99.993096   -103.80566     278.0061     125.0322    124.33184    103.80566    2.0525999 
  397180    4321864.9    99.978794   -106.27996    278.01308    125.02003    124.34444    106.27996    2.0526765 
  397200    4321857.5     99.91304   -94.576139    278.02005    125.02962    124.33157    94.576139    2.0527531 
  397220      4322446     99.99298   -168.12567    278.02703    125.02782    124.34717    168.12567    2.0528296 
  397240    4321843.9    100.28825   -102.23078      278.034    125.00445    124.34997    102.23078    2.0529062 
  397260    4323028.7    100.11495   -180.06289    278.04098    125.00253    124.38286    180.06289    2.0529828 
  397280    4322037.3    100.01654   -133.18963    278.04795    124.98558    124.36808    133.18963    2.0530594 
  397300    4323127.1    100.03746   -183.08327    278.05493    124.99756    124.38439    183.08327     2.053136 
  397320    4322351.7    100.09606   -104.78145     278.0619    124.98943    124.36704    104.78145    2.0532126 
  397340    4323552.7    100.03993   -171.85324    278.06888    125.00083    124.38713    171.85324    2.0532892 
  397360    4322321.1    100.17313   -111.91833    278.07585    124.99215    124.35722    111.91833    2.0533657 
  397380    4323183.4    100.25503   -143.45942    278.08283    125.00374    124.36738    143.45942    2.0534423 
  397400    4322078.2    100.34256   -98.054034     278.0898    124.99344    124.34271    98.054034    2.0535189 
  397420    4322441.9    99.973731   -150.81412    278.09678    124.99167    124.35182    150.81412    2.0535955 
  397440    4322467.4    100.32797   -72.151923    278.10375    124.99728    124.34386    72.151923    2.0536721 
  397460    4321985.8    99.979783   -100.10944    278.11072    125.01003     124.3142    100.10944    2.0537487 
  397480      4322304    100.36564   -86.487458     278.1177    125.01185    124.31843    86.487458    2.0538253 
  397500    4323215.1    100.13241    -80.15557    278.12467    125.02763    124.32582     80.15557    2.0539019 
  397520    4323058.6    100.17723   -107.88216    278.13165     125.0459    124.30003    107.88216    2.0539784 
  397540    4323017.7    99.828745   -104.70663    278.13862    125.04686    124.29478    104.70663     2.054055 
  397560    4324497.8    99.956428   -155.14899     278.1456    125.06385    124.31734    155.14899    2.0541316 
  397580    4324677.4    99.631347   -131.19259    278.15257    125.07613    124.30717    131.19259    2.0542082 
  397600    4324462.5    99.948693   -161.41705    278.15955    125.08156    124.29248    161.41705    2.0542848 
  397620    4323961.3    99.802235   -59.215729    278.16652    125.08844    124.26813    59.215729    2.0543614 
  397640    4325020.1    99.805892   -92.220107     278.1735     125.0939    124.29001    92.220107     2.054438 
  397660    4325052.1     99.77286   -29.629331    278.18047    125.08748    124.29419    29.629331    2.0545145 
  397680    4325244.5    99.921544   -90.553787    278.18745    125.07468    124.30933    90.553787    2.0545911 
  397700    4325534.2    100.04378   -62.310974    278.19442    125.08051    124.30875    62.310974    2.0546677 
  397720    4327227.4    99.818318   -174.77443     278.2014     125.0796     124.3552    174.77443    2.0547443 
  397740    4326974.8    99.952237   -91.888925    278.20837    125.07587    124.34852    91.888925    2.0548209 
  397760    4327225.5    99.950908   -148.84348    278.21535    125.07366    124.35481    148.84348    2.0548975 
  397780      4327833    99.898334   -77.780632    278.22232    125.08418    124.35868    77.780632    2.0549741 
  397800    4328483.9    99.937546   -150.10943     278.2293    125.06975    124.38862    150.10943    2.0550507 
  397820    4328861.9    99.827037   -116.58529    278.23627    125.07307    124.39307    116.58529    2.0551272 
  397840    4329150.2    100.19025   -151.74338    278.24325    125.08723    124.38415    151.74338    2.0552038 
  397860    4329838.2    100.24126   -125.25607    278.25022    125.08704    124.40099    125.25607    2.0552804 
  397880    4330535.2    100.02189   -151.39706     278.2572    125.07018    124.43467    151.39706     2.055357 
  397900    4330899.4    100.24841   -157.51651    278.26417    125.07874    124.43349    157.51651    2.0554336 
  397920    4330782.4    99.908713   -140.61372    278.27115    125.06611    124.43958    140.61372    2.0555102 
  397940    4331186.1     99.92893   -121.70791    278.27812    125.05342    124.46069    121.70791    2.0555868 
  397960    4330860.4    100.09794   -130.71122     278.2851    125.05128    124.45034    130.71122    2.0556634 
  397980    4331864.1    99.993744   -108.28608    278.29207    125.06664    124.46077    108.28608    2.0557399 
  398000    4331241.5    99.844426   -81.912929    278.29905    125.04768    124.45864    81.912929    2.0558165 
  398020    4330942.2    100.23384    -99.96258    278.30602    125.04019    124.45437     99.96258    2.0558931 
  398040    4330750.1    100.28729    -45.83054      278.313    125.04404     124.4419     45.83054    2.0559697 
  398060    4331772.1    100.10711   -144.70874    278.31997    125.03943    124.47273    144.70874    2.0560463 
  398080    4330405.5    99.841223   -40.680498    278.32695    125.03359    124.43616    40.680498    2.0561229 
  398100      4329650     100.1201   -106.70515    278.33392    125.02564    124.41924    106.70515    2.0561995 
  398120      4329681    100.03147   -52.522349     278.3409    125.03536    124.40735    52.522349     2.056276 
  398140    4329908.1    99.825876   -108.98499    278.34787    125.03065    124.41545    108.98499    2.0563526 
  398160    4329730.1    99.755166    -115.1868    278.35485    125.04367    124.39426     115.1868    2.0564292 
  398180    4329423.2    99.915341   -177.46755    278.36182    125.04392    124.38207    177.46755    2.0565058 
  398200    4329026.5    99.797901   -147.83961     278.3688    125.04556    124.36592    147.83961    2.0565824 
  398220    4329485.2    100.10164   -195.45974    278.37577    125.05397    124.36763    195.45974     2.056659 
  398240    4328177.7    99.964447   -146.80168    278.38275    125.03944     124.3414    146.80168    2.0567356 
  398260    4327541.1    99.806389   -87.226377    278.38972    125.02307    124.33627    87.226377    2.0568122 
  398280    4327052.3     99.91124   -74.156931     278.3967    125.01608    124.32606    74.156931    2.0568887 
  398300    4327830.9    99.527436   -135.37826    278.40367    125.02044    124.34098    135.37826    2.0569653 
  398320    4327815.7    99.710964   -117.63514    278.41065    125.03085    124.32708    117.63514    2.0570419 
  398340    4327966.2    99.711074   -187.20984    278.41762    125.04621    124.31302    187.20984    2.0571185 
  398360    4328465.3    99.687219   -153.00563     278.4246    125.03438    124.33601    153.00563    2.0571951 
  398380    4329152.6    99.854784   -175.66977    278.43157    125.04859     124.3385    175.66977    2.0572717 
  398400    4328067.3    99.492855    -130.2285    278.43855    125.02841    124.32427     130.2285    2.0573483 
  398420    4327572.6    99.535827   -129.70748    278.44552    124.99949    124.33571    129.70748    2.0574249 
  398440    4328260.6    99.721958   -134.99639     278.4525    125.01403     124.3379    134.99639    2.0575014 
  398460    4328380.5    99.846304   -108.43987    278.45947     125.0108    124.34145    108.43987     2.057578 
  398480    4327675.4    99.795364   -99.720924    278.46645    124.99441    124.33438    99.720924    2.0576546 
  398500    4327834.7    99.999901   -79.670981    278.47342      125.007    124.32332    79.670981    2.0577312 
  398520    4328233.5    99.871066   -122.17917     278.4804    125.01202    124.32667    122.17917    2.0578078 
  398540    4328317.2    100.06246   -83.655378    278.48737    125.01702    124.32098    83.655378    2.0578844 
  398560    4327331.9    99.952793   -89.484883    278.49435    125.00636    124.30017    89.484883     2.057961 
  398580    4329021.8    100.06875   -89.384427    278.50132    125.01901    124.33301    89.384427    2.0580375 
  398600    4329926.1     100.3454   -142.14813     278.5083    125.02484    124.35007    142.14813    2.0581141 
  398620    4329068.6    100.15038   -92.855955    278.51527    125.02538     124.3218    92.855955    2.0581907 
  398640    4329652.6      100.111   -150.00609    278.52224    125.05529    124.30572    150.00609    2.0582673 
  398660    4328995.3    99.968239   -106.82478    278.52922    125.05367    124.28534    106.82478    2.0583439 
  398680    4329350.8    100.32092   -149.45718    278.53619    125.06227    124.28389    149.45718    2.0584205 
  398700    4328227.4    99.824852   -63.231663    278.54317    125.05071    124.26001    63.231663    2.0584971 
  398720    4328941.8    99.995193   -129.64959    278.55014    125.04375    124.28433    129.64959    2.0585737 
  398740    4329277.5     99.96776   -84.933702    278.55712    125.02802    124.30649    84.933702    2.0586502 
  398760    4329524.1    100.10389   -173.91078    278.56409     125.0226    124.31585    173.91078    2.0587268 
  398780    4328444.2    99.928239   -129.29606    278.57107    124.99298    124.31118    129.29606    2.0588034 
  398800      4330040    99.909816   -150.25034    278.57804    125.01361    124.33338    150.25034      2.05888 
  398820      4329368    100.00239   -127.06753    278.58502    125.01284    124.31173    127.06753    2.0589566 
  398840    4329825.3    100.06922   -153.57907    278.59199    125.02704    124.30763    153.57907    2.0590332 
  398860      4330312    99.667649   -102.67014    278.59897    125.01963    124.32586    102.67014    2.0591098 
  398880    4330748.4     100.0335   -167.14834    278.60594    125.02695      124.328    167.14834    2.0591863 
  398900    4329894.4    99.930891   -91.489954    278.61292    125.01713    124.31013    91.489954    2.0592629 
  398920      4329485    99.986035   -90.225662    278.61989    125.01935    124.29306    90.225662    2.0593395 
  398940    4330032.6    99.837845    -83.02906    278.62687    125.02294     124.3021     83.02906    2.0594161 
  398960    4330473.2    99.786817   -140.20655    278.63384    125.03672    124.29794    140.20655    2.0594927 
  398980    4330526.1    99.683403   -140.43639    278.64082     125.0289    124.30412    140.43639    2.0595693 
  399000    4330686.5    99.992178     -158.003    278.64779    125.03116    124.30336      158.003    2.0596459 
  399020    4330756.1    99.901187   -131.49787    278.65477     125.0207    124.31265    131.49787    2.0597225 
  399040    4330242.8    99.923086    -143.7082    278.66174    125.00792    124.30751     143.7082     2.059799 
  399060    4330991.2    99.812771   -157.67434    278.66872    125.01508    124.31876    157.67434    2.0598756 
  399080    4331054.5     100.0222   -108.21492    278.67569     125.0096    124.32292    108.21492    2.0599522 
  399100    4331702.7    100.18278   -141.60489    278.68267    125.00554    124.34245    141.60489    2.0600288 
  399120    4331123.7    100.09872   -83.056008    278.68964    125.00507    124.32318    83.056008    2.0601054 
  399140    4332382.9    99.947791    -103.2764    278.69662    125.01791    124.34345     103.2764     2.060182 
  399160    4331895.6    99.950908   -84.294623    278.70359    124.99448    124.34966    84.294623    2.0602586 
  399180    4332798.1    100.11089    -129.0417    278.71057    124.99652    124.37042     129.0417    2.0603352 
  399200    4331778.2    100.03508   -80.542851    278.71754    124.97755     124.3569    80.542851    2.0604117 
  399220    4331868.3    100.38343    -85.72802    278.72452    124.95862    124.37522     85.72802    2.0604883 
  399240    4332075.4    99.935982   -123.42796    278.73149    124.94496    124.39165    123.42796    2.0605649 
  399260    4331737.2    100.49955   -87.757705    278.73847    124.94265    124.38113    87.757705    2.0606415 
  399280    4331217.2    100.06672   -45.361946    278.74544     124.9144    124.39121    45.361946    2.0607181 
  399300      4331682    100.17543    -81.90542    278.75242    124.91035    124.40547     81.90542    2.0607947 
  399320    4333172.3    99.995853   -148.92672    278.75939    124.93241    124.42319    148.92672    2.0608713 
  399340    4333272.4    100.20507   -147.50978    278.76637    124.93637    124.41901    147.50978    2.0609478 
  399360    4332973.4    99.836308   -84.520739    278.77334    124.92393     124.4197    84.520739    2.0610244 
  399380    4332802.1    100.18404   -101.50086    278.78032    124.93992    124.39574    101.50086     2.061101 
  399400    4334596.7    100.00577   -126.05874    278.78729    124.96306    124.42111    126.05874    2.0611776 
  399420    4334671.3    99.981087   -164.45912    278.79427    124.97425      124.409    164.45912    2.0612542 
  399440    4334525.8    100.05248    -164.7757    278.80124    124.96817    124.40776     164.7757    2.0613308 
  399460    4335551.7     99.95832     -99.1263    278.80822     124.9855    124.41685      99.1263    2.0614074 
  399480    4335719.2    100.00798   -176.74457    278.81519    124.98192     124.4221    176.74457     2.061484 
  399500    4335946.5    99.905439   -101.47059    278.82217    124.98777    124.41969    101.47059    2.0615605 
  399520      4335652    99.946657   -123.61705    278.82914    124.98406    124.41181    123.61705    2.0616371 
  399540    4336485.8    100.05881   -117.16548    278.83612    125.01014    124.40667    117.16548    2.0617137 
  399560    4336565.9    99.746566   -172.22446    278.84309     125.0259    124.39017    172.22446    2.0617903 
  399580    4336676.8    99.876067   -142.86172    278.85007    125.04671    124.36954    142.86172    2.0618669 
  399600    4337102.3     100.0461   -122.09479    278.85704     125.0468    124.37855    122.09479    2.0619435 
  399620    4337041.1    99.944674   -87.612224    278.86402     125.0252    124.39517    87.612224    2.0620201 
  399640    4337786.2    99.929777   -116.33993    278.87099    125.03211    124.40655    116.33993    2.0620967 
  399660    4338718.2    99.846087   -64.470457    278.87797    125.02996    124.43231    64.470457    2.0621732 
  399680      4338520    100.11906   -132.05696    278.88494    125.03475    124.41874    132.05696    2.0622498 
  399700      4338800    100.06456   -125.02412    278.89192    125.04299    124.41546    125.02412    2.0623264 
  399720    4338267.4     100.1248   -87.498936    278.89889    125.04122    124.39884    87.498936     2.062403 
  399740    4339480.7    100.07351   -114.38724    278.90587    125.04977    124.42201    114.38724    2.0624796 
  399760    4338868.7    100.13076   -94.040154    278.91284    125.04761     124.4035    94.040154    2.0625562 
  399780    4338601.7    100.11721   -133.37791    278.91981    125.03586    124.40442    133.37791    2.0626328 
  399800    4339343.6    100.17776   -99.966956    278.92679    125.04789    124.41061    99.966956    2.0627093 
  399820    4338915.4    100.28186   -111.33988    278.93376    125.04952    124.39361    111.33988    2.0627859 
  399840    4337677.7    100.49014   -70.790381    278.94074    125.05368    124.35088    70.790381    2.0628625 
  399860    4337938.4    100.13608   -168.86893    278.94771    125.04897    124.35992    168.86893    2.0629391 
  399880      4337724    100.35155   -87.273623    278.95469     125.0453    124.35432    87.273623    2.0630157 
  399900    4338259.2    100.26762   -168.31843    278.96166     125.0542     124.3577    168.31843    2.0630923 
  399920    4337064.3    100.41999    -96.26872    278.96864    125.04056     124.3339     96.26872    2.0631689 
  399940    4337969.2    100.44281   -103.77348    278.97561    125.05015     124.3472    103.77348    2.0632455 
  399960    4338696.5     100.2942   -99.623946    278.98259    125.06641    124.34877    99.623946     2.063322 
  399980    4338296.4     100.3648   -119.41958    278.98956    125.06271    124.33787    119.41958    2.0633986 
  400000    4337948.4    100.18677   -97.564554    278.99654    125.05344      124.334    97.564554    2.0634752 
Loop time of 61975.7 on 64 procs for 400000 steps with 212040 atoms

Performance: 0.558 ns/day, 43.039 hours/ns, 6.454 timesteps/s
99.9% CPU use with 64 MPI tasks x 1 OpenMP threads

MPI task timing breakdown:
Section |  min time  |  avg time  |  max time  |%varavg| %total
---------------------------------------------------------------
Pair    | 9366.5     | 18223      | 23879      |2872.7 | 29.40
Bond    | 997.42     | 1580.7     | 1884.4     | 663.6 |  2.55
Kspace  | 2483.8     | 8423.5     | 17869      |4514.2 | 13.59
Neigh   | 32024      | 32109      | 32184      |  25.1 | 51.81
Comm    | 1126.2     | 1232.3     | 1342.2     | 160.0 |  1.99
Output  | 9.2018     | 10.143     | 11.131     |  13.7 |  0.02
Modify  | 314.75     | 355.4      | 396.55     | 111.5 |  0.57
Other   |            | 42         |            |       |  0.07

Nlocal:        3313.12 ave        5002 max         100 min
Histogram: 6 8 2 0 0 5 7 4 7 25
Nghost:        16355.0 ave       23955 max        4827 min
Histogram: 7 9 0 0 6 10 0 3 13 16
Neighs:    1.89378e+06 ave  3.1629e+06 max       26400 min
Histogram: 14 2 0 0 2 10 4 4 14 14

Total # of neighbors = 1.2120173e+08
Ave neighs/atom = 571.59842
Ave special neighs/atom = 5.9990568
Neighbor list builds = 400000
Dangerous builds not checked
Total wall time: 17:13:00
